# ODT 1.0
# Table Start
# Title: mmArchive Data Table, Tue Jun 11 14:15:29 BST 2024
# Columns: {Oxs_CGEvolve:evolver:Max mxHxm} {Oxs_CGEvolve:evolver:Total energy} {Oxs_CGEvolve:evolver:Delta E} {Oxs_CGEvolve:evolver:Bracket count} {Oxs_CGEvolve:evolver:Line min count} {Oxs_CGEvolve:evolver:Conjugate cycle count} {Oxs_CGEvolve:evolver:Cycle count} {Oxs_CGEvolve:evolver:Cycle sub count} {Oxs_CGEvolve:evolver:Energy calc count} Oxs_UniformExchange:exchange:Energy {Oxs_UniformExchange:exchange:Max Spin Ang} {Oxs_UniformExchange:exchange:Stage Max Spin Ang} {Oxs_UniformExchange:exchange:Run Max Spin Ang} Oxs_UniaxialAnisotropy:uniaxialanisotropy:Energy Oxs_DMI_T:dmi:Energy Oxs_UZeeman:hysteresis:Energy Oxs_UZeeman:hysteresis:B Oxs_UZeeman:hysteresis:Bx Oxs_UZeeman:hysteresis:By Oxs_UZeeman:hysteresis:Bz Oxs_MinDriver::Iteration {Oxs_MinDriver::Stage iteration} Oxs_MinDriver::Stage Oxs_MinDriver::mx    Oxs_MinDriver::my    Oxs_MinDriver::mz   
# Units:                 A/m                                 J                                J                                 {}                                   {}                                        {}                                      {}                                   {}                                      {}                                     J                                      deg                                            deg                                              deg                                              J                                  J                         J                          mT                       mT                        mT                        mT                        {}                           {}                         {}                 {}                   {}                   {}           
                  0.0811958132783                  -5.2962432855199998e-16              -3.9443045261100004e-31               9                                    9                                         1                                       8                                    7                                       19                                    1.17850616895e-19                       10.711616020399999                             14.106044260599999                               14.106044260599999                               6.7311399176700001e-19               -3.2603539629499998e-18     -5.2715493919800002e-16         1000                     0                         0                        -1000                      18                           18                         0                    6.2011002393599996e-20 -4.2029679400100002e-19 -0.99839950605700001
                  0.079323201267400001              -4.7691354002399996e-16              -8.8746851837399999e-31               16                                   15                                        2                                       15                                   6                                       33                                    1.3014162862399999e-19                     11.2334722427                                  11.3030931029                                    14.106044260599999                               7.4982466075099997e-19               -3.44115284458e-18       -4.7435235346900003e-16         900                      0                         0                        -900                       32                           13                         1                    2.1014839700100001e-19  2.7560445508300003e-20 -0.99821623204800003
                  0.056198069920499999              -4.2421329158300002e-16              -9.8607613152600004e-32               23                                   22                                        3                                       22                                   6                                       48                                    1.44509712388e-19                       11.808677061199999                             12.045319797399999                               14.106044260599999                               8.40671756269e-19                 -3.6437151712699999e-18     -4.21554757881e-16           800                      0                         0                        -800                       47                           14                         2                    2.41153898197e-19   -1.7914289580399999e-19 -0.99799895331599997
                  0.086508224776600001              -3.7152560839199998e-16              -1.97215226305e-31                 31                                   29                                        4                                       29                                   6                                       64                                    1.61466179277e-19                       12.4458939911                                  12.5374880459                                    14.106044260599999                               9.4943138177199996e-19               -3.8723546102799999e-18     -3.6876415134200001e-16         700                      0                         0                        -700                       62                           14                         3                    2.3081873113199998e-19  5.3742868741099997e-19 -0.99773850471400005
                  0.053081818756099998              -3.18853083488e-16                -3.9443045261100004e-31               40                                   36                                        5                                       37                                   7                                       81                                    1.8169663451099999e-19                     13.155800682600001                             13.267017905499999                               14.106044260599999                               1.08126428486e-18                 -4.1326526517999998e-18     -3.15983391755e-16           600                      0                         0                        -600                       78                           15                         4                   -1.1713189340999999e-19  5.2364846465700004e-19 -0.99742232245999995
                  0.090355000344200007              -2.6619909816099999e-16              -1.0353799381e-30                  48                                   43                                        6                                       45                                   7                                       97                                    2.0614128024299999e-19                     13.951792920700001                             14.2807982868                                    14.2807982868                                    1.2433931386799999e-18               -4.43198414023e-18       -2.63216648439e-16           500                      0                         0                        -500                       94                           15                         5                    2.89384677837e-19   -1.1437584885899999e-18 -0.99703275924000001
                  0.076048017927799999              -2.1356815753099999e-16              -2.4651903288199998e-31               56                                   51                                        7                                       53                                   7                                       114                                   2.3612479073700002e-19                     14.851429318699999                             15.2168926282                                    15.2168926282                                    1.44621589096e-18                 -4.7803425780199998e-18     -2.1047015563499999e-16         400                      0                         0                        -400                       111                          16                         6                    4.9608801914899998e-19  5.5120891016500002e-20 -0.99654429751399998
                  0.056088754871500002              -1.6096642157100001e-16              -6.1629758220399999e-31               66                                   59                                        8                                       62                                   8                                       133                                   2.73576739924e-19                       15.8767067297                                  16.092714902099999                               16.092714902099999                               1.7052239399500001e-18               -5.1916981255000001e-18     -1.57753524125e-16           300                      0                         0                        -300                       129                          17                         7                   -2.89384677837e-19    1.0610771520700001e-18 -0.99591871291099998
                  0.083112958311099994              -1.0840258631e-16                 -1.8488927466100001e-31               75                                   68                                        9                                       71                                   8                                       152                                   3.2142942040899998e-19                     17.057485798199998                             17.4911516407                                    17.4911516407                                    2.04450679489e-18                 -5.6863682756900001e-18     -1.0508215425e-16            200                      0                         0                        -200                       148                          18                         8                    5.0297813052600004e-19  8.6815403351100004e-19 -0.99509615767000004
                  0.052572404780900001              -5.5889438035400005e-17              -8.6281661508499997e-32               86                                   78                                        10                                      81                                   9                                       174                                   3.84396631244e-19                       18.435444220499999                             18.807056926000001                               18.807056926000001                               2.5036618055500001e-18               -6.2954906528599998e-18     -5.2482005819299998e-17         100                      0                         0                        -100                       169                          20                         9                    1.01973648381e-18   -5.9254957842800003e-19 -0.993977382942     
                  0.087404971795899997              -3.4468282659299999e-18              -1.2765063671400001e-30               98                                   88                                        11                                      92                                   10                                      197                                   4.7067943813599999e-19                     20.072693881700001                             20.5846290311                                    20.5846290311                                    3.1529135054200001e-18               -7.0704212094900001e-18      0                           0                        0                         0                         0                         191                          21                         10                   6.8901113770699994e-21  8.2681336524799999e-20 -0.99238427695499998
                  0.094164546811099994               4.8891916064799998e-17              -1.60237371373e-31                 111                                  100                                       12                                      104                                  11                                      223                                   5.9639247378699997e-19                     22.073467050200001                             22.809512165600001                               22.809512165600001                               4.1317396843300001e-18               -8.1059507496399994e-18      5.2269734656299998e-17         100                      0                         0                         100                       216                          24                         11                  -9.2327492452699997e-19  7.44132028723e-19   -0.98995709576400004
                  0.083095674888699997               1.01063200395e-16                -1.12166159961e-30                 127                                  114                                       13                                      119                                  14                                      254                                   8.0101136266699998e-19                     25.719683807399999                             25.7809746818                                    25.7809746818                                    5.7780884041099999e-18               -9.6164782050499998e-18      1.04100578833e-16           200                      0                         0                         200                       245                          28                         12                   9.5083537003500002e-19  6.6145069219799998e-19 -0.98580093591899998
                  0.081526351878599995              -1.4856207543600001e-16              -7.3955709864499996e-32               674                                  145                                       495                                     633                                  18                                      833                                   8.0703563303899999e-18                     177.65825523000001                             179.633273293                                    179.633273293                                    5.2905031933100002e-18               -1.3676069823500001e-17     -1.4824686513700001e-16         300                      0                         0                         300                       818                          572                        13                  -6.2011002393599996e-20  1.6536267304999999e-19  0.93590192636799996
                  0.090989660298600006              -2.0807088119599999e-16              -2.9582283945799998e-31               845                                  173                                       606                                     772                                  21                                      1033                                  3.6021222630599996e-18                     179.05359150699999                             179.085321271                                    179.633273293                                    1.97889926701e-18                 -6.6504311654200003e-18     -2.07001471561e-16           400                      0                         0                         400                       1009                         190                        14                  -9.8321889350799999e-18 -7.1657158321500003e-19  0.98012060398099998
                  0.085815265504899998              -2.6619909816099999e-16              -5.9164567891599996e-31               904                                  188                                       640                                     821                                  7                                       1108                                  2.0614127959999999e-19                     13.951792581399999                             179.49450413299999                               179.633273293                                    1.24339314066e-18                 -4.4319841428400002e-18     -2.6321664843800002e-16         500                      0                         0                         500                       1080                         70                         15                   7.5791225147700005e-20 -1.6536267304999999e-19  0.99703275923500001
                  0.060798426508700001              -3.18853083488e-16                -4.9303806576300004e-31               912                                  195                                       641                                     829                                  7                                       1124                                  1.8169663448699999e-19                     13.155801197100001                             13.951792581399999                               179.633273293                                    1.08126428479e-18                 -4.1326526516700003e-18     -3.15983391755e-16           600                      0                         0                         600                       1096                         15                         16                   1.8603300718100001e-19 -4.5474735088600005e-19  0.99742232245999995
                  0.097628429049599993              -3.7152560839199998e-16              -2.9582283945799998e-31               919                                  202                                       642                                     836                                  6                                       1139                                  1.61466183529e-19                       12.445891959100001                             13.155801197100001                               179.633273293                                    9.4943138196600004e-19               -3.8723546150300002e-18     -3.6876415134200001e-16         700                      0                         0                         700                       1111                         14                         17                   1.2746706047600001e-19 -3.7206601436200002e-19  0.99773850471299996
                  0.062967922859499995              -4.2421329158300002e-16              -9.8607613152600004e-32               926                                  209                                       643                                     843                                  6                                       1154                                  1.4450971478000001e-19                     11.808675838799999                             12.445891959100001                               179.633273293                                    8.4067175633800001e-19               -3.6437151738800002e-18     -4.2155475788000002e-16         800                      0                         0                         800                       1126                         14                         18                   1.4813739460700001e-19  2.2048356406600001e-19  0.99799895331599997
                  0.088358629054899995              -4.7691354002399996e-16              -9.8607613152600009e-31               933                                  215                                       644                                     850                                  6                                       1168                                  1.3014162674599999e-19                     11.2334717314                                  11.808675838799999                               179.633273293                                    7.4982466067400004e-19               -3.4411528426300002e-18     -4.7435235346900003e-16         900                      0                         0                         900                       1140                         13                         19                  -3.9962645986999998e-19  2.6182423232899999e-19  0.99821623204800003
                  0.061260194472799998              -5.2962432855199998e-16              -4.9303806576300004e-31               940                                  221                                       645                                     857                                  6                                       1182                                  1.17850616237e-19                       10.711615294                                   11.2334717314                                    179.633273293                                    6.7311398077000002e-19               -3.2603539375200001e-18     -5.2715493921200003e-16         1000                     0                         0                         1000                      1154                         13                         20                  -2.9627478921400001e-19  1.3780222754099999e-19  0.99839950608299999
                  0.079314923913900007              -4.7691354002399996e-16              -7.8886090522099998e-31               947                                  227                                       646                                     864                                  6                                       1196                                  1.30141628623e-19                       11.2334722427                                  11.4510132211                                    179.633273293                                    7.4982466075300005e-19               -3.44115284458e-18       -4.7435235346900003e-16         900                      0                         0                         900                       1168                         13                         21                  -3.2728029041099998e-19  6.8901113770700003e-20  0.99821623204800003
                  0.056279592761400002              -4.2421329158300002e-16              -1.4791141972899999e-31               954                                  234                                       647                                     871                                  6                                       1211                                  1.4450971239300001e-19                     11.808677060899999                             12.045320584700001                               179.633273293                                    8.4067175626799996e-19               -3.6437151712699999e-18     -4.21554757881e-16           800                      0                         0                         800                       1183                         14                         22                  -3.8929129280400001e-19  5.6498913291999997e-19  0.99799895331599997
                  0.086399610926199993              -3.7152560839199998e-16              -2.4651903288199998e-31               962                                  241                                       648                                     878                                  6                                       1227                                  1.6146617926999999e-19                     12.4458939919                                  12.5374880456                                    179.633273293                                    9.4943138177400004e-19               -3.8723546102799999e-18     -3.6876415134200001e-16         700                      0                         0                         700                       1198                         14                         23                  -1.89478062869e-19   -5.5120891016500002e-20  0.99773850471400005
                  0.053097203899299998              -3.18853083488e-16                -3.4512664603399999e-31               971                                  248                                       649                                     886                                  7                                       1244                                  1.8169663451200001e-19                     13.155800682700001                             13.267017903799999                               179.633273293                                    1.08126428486e-18                 -4.1326526517999998e-18     -3.15983391755e-16           600                      0                         0                         600                       1214                         15                         24                   1.30912116164e-19    6.8901113770699998e-19  0.99742232245999995
                  0.090348151049                   -2.6619909816099999e-16              -1.0353799381e-30                  979                                  255                                       650                                     894                                  7                                       1260                                  2.0614128024299999e-19                     13.951792920700001                             14.280801931599999                               179.633273293                                    1.2433931386799999e-18               -4.43198414023e-18       -2.63216648439e-16           500                      0                         0                         500                       1230                         15                         25                  -3.1694512334500001e-19 -7.0279136046100001e-19  0.99703275924000001
                  0.076045610101200006              -2.1356815753099999e-16              -2.4651903288199998e-31               987                                  263                                       651                                     902                                  7                                       1277                                  2.3612479073599998e-19                     14.851429318699999                             15.216891308199999                               179.633273293                                    1.44621589097e-18                 -4.7803425780199998e-18     -2.1047015563499999e-16         400                      0                         0                         400                       1247                         16                         26                   4.82307796395e-20    1.10241782033e-19    0.99654429751399998
                  0.056087591180300003              -1.6096642157100001e-16              -6.1629758220399999e-31               997                                  271                                       652                                     911                                  8                                       1296                                  2.73576739924e-19                       15.8767067297                                  16.092714902800001                               179.633273293                                    1.7052239399500001e-18               -5.1916981255000001e-18     -1.57753524125e-16           300                      0                         0                         300                       1265                         17                         27                   1.1713189340999999e-19 -1.1575387113500001e-18  0.99591871291099998
                  0.083117302653199998              -1.0840258631e-16                 -1.7256332301699999e-31               1006                                 280                                       653                                     920                                  8                                       1315                                  3.2142942040899998e-19                     17.0574857981                                  17.491147435799999                               179.633273293                                    2.04450679489e-18                 -5.6863682756799999e-18     -1.0508215425e-16            200                      0                         0                         200                       1284                         18                         28                   1.30912116164e-19   -2.3426378681999999e-19  0.99509615767000004
                  0.052573575658500002              -5.5889438035400005e-17              -8.6281661508499997e-32               1017                                 290                                       654                                     930                                  9                                       1337                                  3.84396631244e-19                       18.435444220499999                             18.8070569257                                    179.633273293                                    2.5036618055500001e-18               -6.2954906528599998e-18     -5.2482005819299998e-17         100                      0                         0                         100                       1305                         20                         29                  -1.10241782033e-19   -8.2681336524799999e-20  0.993977382942     
                  0.087404812220299999              -3.4468282659299999e-18              -1.2765063671400001e-30               1029                                 300                                       655                                     941                                  10                                      1360                                  4.7067943813599999e-19                     20.072693881700001                             20.5846290309                                    179.633273293                                    3.1529135054200001e-18               -7.0704212094900001e-18      0                           0                        0                         0                         0                         1327                         21                         30                  -1.3504618299100001e-18 -9.9217603829799996e-19  0.99238427695499998