# ODT 1.0
# Table Start
# Title: mmArchive Data Table, Sun Sep 11 12:23:22 CEST 2022
# Columns: {Oxs_CGEvolve:evolver:Max mxHxm} {Oxs_CGEvolve:evolver:Total energy} {Oxs_CGEvolve:evolver:Delta E} {Oxs_CGEvolve:evolver:Bracket count} {Oxs_CGEvolve:evolver:Line min count} {Oxs_CGEvolve:evolver:Conjugate cycle count} {Oxs_CGEvolve:evolver:Cycle count} {Oxs_CGEvolve:evolver:Cycle sub count} {Oxs_CGEvolve:evolver:Energy calc count} Oxs_UniformExchange:exchange:Energy {Oxs_UniformExchange:exchange:Max Spin Ang} {Oxs_UniformExchange:exchange:Stage Max Spin Ang} {Oxs_UniformExchange:exchange:Run Max Spin Ang} Oxs_UniaxialAnisotropy:uniaxialanisotropy:Energy Oxs_DMI_T:dmi:Energy Oxs_UZeeman:hysteresis:Energy Oxs_UZeeman:hysteresis:B Oxs_UZeeman:hysteresis:Bx Oxs_UZeeman:hysteresis:By Oxs_UZeeman:hysteresis:Bz Oxs_MinDriver::Iteration {Oxs_MinDriver::Stage iteration} Oxs_MinDriver::Stage Oxs_MinDriver::mx    Oxs_MinDriver::my    Oxs_MinDriver::mz   
# Units:                 A/m                                 J                                J                                 {}                                   {}                                        {}                                      {}                                   {}                                      {}                                     J                                      deg                                            deg                                              deg                                              J                                  J                         J                          mT                       mT                        mT                        mT                        {}                           {}                         {}                 {}                   {}                   {}           
                  0.081200839178500003              -5.2962432855199998e-16              -2.9582283945799998e-31               9                                    9                                         1                                       8                                    7                                       19                                    1.1785061689399999e-19                     10.711616020199999                             14.106044260599999                               14.106044260599999                               6.7311399176500003e-19               -3.26035396294e-18       -5.2715493919800002e-16         1000                     0                         0                        -1000                      18                           18                         0                    1.55027505984e-19    2.41153898197e-19   -0.99839950605700001
                  0.079325999006600006              -4.7691354002399996e-16              -8.8746851837399999e-31               16                                   15                                        2                                       15                                   6                                       33                                    1.3014162862399999e-19                     11.2334722427                                  11.3031015766                                    14.106044260599999                               7.4982466075099997e-19               -3.44115284458e-18       -4.7435235346900003e-16         900                      0                         0                        -900                       32                           13                         1                   -1.4813739460700001e-19 -1.72252784427e-19   -0.99821623204800003
                  0.056125686392899998              -4.2421329158300002e-16              -1.4791141972899999e-31               23                                   22                                        3                                       22                                   6                                       48                                    1.4450971238399999e-19                     11.808677061499999                             12.045320826999999                               14.106044260599999                               8.40671756269e-19                 -3.6437151712599997e-18     -4.21554757881e-16           800                      0                         0                        -800                       47                           14                         2                    3.1005501196799999e-19 -1.7914289580399999e-19 -0.99799895331599997
                  0.086456247944599995              -3.7152560839199998e-16              -2.4651903288199998e-31               31                                   29                                        4                                       29                                   6                                       64                                    1.6146617927300001e-19                     12.4458939914                                  12.5374880461                                    14.106044260599999                               9.494313817730001e-19               -3.8723546102799999e-18     -3.6876415134200001e-16         700                      0                         0                        -700                       62                           14                         3                   -6.7523091495300004e-19  1.5158245029499999e-19 -0.99773850471400005
                  0.053076498219599998              -3.18853083488e-16                -3.4512664603399999e-31               40                                   36                                        5                                       37                                   7                                       81                                    1.8169663451099999e-19                     13.155800682600001                             13.267017905199999                               14.106044260599999                               1.08126428486e-18                 -4.1326526517999998e-18     -3.15983391755e-16           600                      0                         0                        -600                       78                           15                         4                    2.41153898197e-19   -7.8547269698600003e-19 -0.99742232245999995
                  0.090345674259599995              -2.6619909816099999e-16              -1.0353799381e-30                  48                                   43                                        6                                       45                                   7                                       97                                    2.06141280242e-19                       13.951792920700001                             14.280803973599999                               14.280803973599999                               1.2433931386799999e-18               -4.43198414023e-18       -2.63216648439e-16           500                      0                         0                        -500                       94                           15                         5                   -1.8603300718100001e-19 -6.8901113770699998e-19 -0.99703275924000001
                  0.076054853053500002              -2.1356815753099999e-16              -2.4651903288199998e-31               56                                   51                                        7                                       53                                   7                                       114                                   2.3612479073800001e-19                     14.851429318699999                             15.2168941549                                    15.2168941549                                    1.44621589096e-18                 -4.7803425780199998e-18     -2.1047015563499999e-16         400                      0                         0                        -400                       111                          16                         6                    9.6461559278899996e-20  8.9571447901899991e-19 -0.99654429751399998
                  0.056093044054500003              -1.6096642157100001e-16              -6.1629758220399999e-31               66                                   59                                        8                                       62                                   8                                       133                                   2.7357673992499999e-19                     15.8767067296                                  16.092714902299999                               16.092714902299999                               1.7052239399500001e-18               -5.1916981255000001e-18     -1.57753524125e-16           300                      0                         0                        -300                       129                          17                         7                   -4.8919790777200001e-19 -5.0986824190300001e-19 -0.99591871291099998
                  0.083099720184200004              -1.0840258631e-16                 -1.7256332301699999e-31               75                                   68                                        9                                       71                                   8                                       152                                   3.2142942040600001e-19                     17.057485798599998                             17.491151932600001                               17.491151932600001                               2.04450679489e-18                 -5.6863682756900001e-18     -1.0508215425e-16            200                      0                         0                        -200                       148                          18                         8                    2.4804400957400002e-19 -2.7560445508300003e-20 -0.99509615767000004
                  0.052584305426800003              -5.5889438035400005e-17              -8.6281661508499997e-32               86                                   78                                        10                                      81                                   9                                       174                                   3.8439663124599998e-19                     18.435444220400001                             18.807056925800001                               18.807056925800001                               2.5036618055500001e-18               -6.2954906528599998e-18     -5.2482005819299998e-17         100                      0                         0                        -100                       169                          20                         9                   -8.6126392213300004e-19 -1.3780222754099999e-19 -0.993977382942     
                  0.087404669435799998              -3.4468282659299999e-18              -1.27612118115e-30                 98                                   88                                        11                                      92                                   10                                      197                                   4.7067943813599999e-19                     20.072693881700001                             20.584629036700001                               20.584629036700001                               3.1529135054200001e-18               -7.0704212094900001e-18      0                           0                        0                         0                         0                         191                          21                         10                  -6.0632980118199996e-19  2.4804400957400002e-19 -0.99238427695499998
                  0.094177658576300005               4.8891916064799998e-17              -1.60237371373e-31                 111                                  100                                       12                                      104                                  11                                      223                                   5.9639247379100003e-19                     22.073467049800001                             22.809512167099999                               22.809512167099999                               4.1317396843300001e-18               -8.1059507496500004e-18      5.2269734656299998e-17         100                      0                         0                         100                       216                          24                         11                   2.2117257520400002e-18  2.6182423232899999e-19 -0.98995709576400004
                  0.083102640882300002               1.01063200395e-16                -1.12166159961e-30                 127                                  114                                       13                                      119                                  14                                      254                                   8.0101136266699998e-19                     25.719683807799999                             25.7809746826                                    25.7809746826                                    5.7780884041099999e-18               -9.6164782050499998e-18      1.04100578833e-16           200                      0                         0                         200                       245                          28                         12                  -8.6815403351100004e-19 -1.5985058394799999e-18 -0.98580093591899998
                  0.081454907998899997              -1.4856207543600001e-16              -9.8607613152600004e-32               674                                  145                                       495                                     633                                  18                                      833                                   8.0703563303699995e-18                     177.658255231                                  179.633273312                                    179.633273312                                    5.2905031934799997e-18               -1.3676069823500001e-17     -1.4824686513700001e-16         300                      0                         0                         300                       818                          572                        13                  -4.0651657124699999e-19  0                    0.93590192636900005
                  0.090999835680699998              -2.0807088119599999e-16              -2.9582283945799998e-31               845                                  173                                       606                                     772                                  21                                      1033                                  3.6021222630699998e-18                     179.053591488                                  179.08532092499999                               179.633273312                                    1.9788992668800001e-18               -6.65043116529e-18       -2.07001471561e-16           400                      0                         0                         400                       1009                         190                        14                  -1.71632674403e-17    1.1079299094299999e-17  0.98012060398099998
                  0.085808235297400004              -2.6619909816099999e-16              -5.9164567891599996e-31               904                                  188                                       640                                     821                                  7                                       1108                                  2.0614127960100001e-19                     13.951792581399999                             179.49450407800001                               179.633273312                                    1.24339314066e-18                 -4.4319841428499997e-18     -2.6321664843800002e-16         500                      0                         0                         500                       1080                         70                         15                  -6.6834080357599998e-19 -7.44132028723e-19    0.99703275923500001
                  0.060815502505299997              -3.18853083488e-16                -4.9303806576300004e-31               912                                  195                                       641                                     829                                  7                                       1124                                  1.81696634486e-19                       13.155801197000001                             13.951792581399999                               179.633273312                                    1.08126428479e-18                 -4.1326526516700003e-18     -3.15983391755e-16           600                      0                         0                         600                       1096                         15                         16                   1.02662659518e-18    4.6163746226399995e-19  0.99742232245999995
                  0.097605484740100001              -3.7152560839199998e-16              -2.9582283945799998e-31               919                                  202                                       642                                     836                                  6                                       1139                                  1.6146618353100001e-19                     12.445891959100001                             13.155801197000001                               179.633273312                                    9.4943138196600004e-19               -3.8723546150300002e-18     -3.6876415134200001e-16         700                      0                         0                         700                       1111                         14                         17                   1.58472561673e-19    5.5120891016500002e-20  0.99773850471299996
                  0.063006104711699998              -4.2421329158300002e-16              -1.4791141972899999e-31               926                                  209                                       643                                     843                                  6                                       1154                                  1.44509714778e-19                       11.808675839199999                             12.445891959100001                               179.633273312                                    8.4067175633699997e-19               -3.6437151738800002e-18     -4.2155475788000002e-16         800                      0                         0                         800                       1126                         14                         18                  -4.5130229519800003e-19  2.06703341312e-19    0.99799895331599997
                  0.088333796923199995              -4.7691354002399996e-16              -9.8607613152600009e-31               933                                  215                                       644                                     850                                  6                                       1168                                  1.3014162674599999e-19                     11.2334717314                                  11.808675839199999                               179.633273312                                    7.4982466067400004e-19               -3.4411528426300002e-18     -4.7435235346900003e-16         900                      0                         0                         900                       1140                         13                         19                   1.10241782033e-19    1.30912116164e-19    0.99821623204800003
                  0.061263701532000003              -5.2962432855199998e-16              -5.9164567891599996e-31               940                                  221                                       645                                     857                                  6                                       1182                                  1.17850616237e-19                       10.711615294                                   11.2334717314                                    179.633273312                                    6.7311398077000002e-19               -3.2603539375200001e-18     -5.2715493921200003e-16         1000                     0                         0                         1000                      1154                         13                         20                  -6.2011002393599996e-20  1.5158245029499999e-19  0.99839950608299999
                  0.079329713100099994              -4.7691354002399996e-16              -8.8746851837399999e-31               947                                  227                                       646                                     864                                  6                                       1196                                  1.30141628623e-19                       11.2334722427                                  11.4510143123                                    179.633273312                                    7.4982466075300005e-19               -3.44115284458e-18       -4.7435235346900003e-16         900                      0                         0                         900                       1168                         13                         21                   3.4106051316500001e-19 -2.1359345268899999e-19  0.99821623204800003
                  0.0562161084767                  -4.2421329158300002e-16              -1.4791141972899999e-31               954                                  234                                       647                                     871                                  6                                       1211                                  1.4450971238899999e-19                     11.808677061099999                             12.0453211357                                    179.633273312                                    8.40671756269e-19                 -3.6437151712699999e-18     -4.21554757881e-16           800                      0                         0                         800                       1183                         14                         22                   9.6461559278899996e-20  7.0279136046100001e-19  0.99799895331599997
                  0.086362549326699997              -3.7152560839199998e-16              -2.4651903288199998e-31               962                                  241                                       648                                     878                                  6                                       1227                                  1.6146617926699999e-19                     12.4458939919                                  12.5374880465                                    179.633273312                                    9.4943138177400004e-19               -3.8723546102799999e-18     -3.6876415134200001e-16         700                      0                         0                         700                       1198                         14                         23                  -7.23461694592e-19    4.13406682624e-20    0.99773850471400005
                  0.053075367501899999              -3.18853083488e-16                -3.4512664603399999e-31               971                                  248                                       649                                     886                                  7                                       1244                                  1.8169663451099999e-19                     13.155800682600001                             13.267017905499999                               179.633273312                                    1.08126428486e-18                 -4.1326526517999998e-18     -3.15983391755e-16           600                      0                         0                         600                       1214                         15                         24                   2.2048356406600001e-19  1.10241782033e-19    0.99742232245999995
                  0.0903523838036                  -2.6619909816099999e-16              -1.0353799381e-30                  979                                  255                                       650                                     894                                  7                                       1260                                  2.0614128024299999e-19                     13.951792920700001                             14.280799277                                     179.633273312                                    1.2433931386799999e-18               -4.43198414023e-18       -2.63216648439e-16           500                      0                         0                         500                       1230                         15                         25                  -7.0968147183799997e-19 -3.5828579160799999e-19  0.99703275924000001
                  0.076052392195100002              -2.1356815753099999e-16              -2.4651903288199998e-31               987                                  263                                       651                                     902                                  7                                       1277                                  2.3612479073700002e-19                     14.851429318699999                             15.216894506699999                               179.633273312                                    1.44621589096e-18                 -4.7803425780199998e-18     -2.1047015563499999e-16         400                      0                         0                         400                       1247                         16                         26                   6.4078035806699998e-19 -1.10241782033e-19    0.99654429751399998
                  0.0560888530486                  -1.6096642157100001e-16              -6.1629758220399999e-31               997                                  271                                       652                                     911                                  8                                       1296                                  2.73576739924e-19                       15.8767067297                                  16.092714902899999                               179.633273312                                    1.7052239399500001e-18               -5.1916981255000001e-18     -1.57753524125e-16           300                      0                         0                         300                       1265                         17                         27                  -6.2700013531299995e-19 -4.9608801914899998e-19  0.99591871291099998
                  0.083094893641199999              -1.0840258631e-16                 -1.7256332301699999e-31               1006                                 280                                       653                                     920                                  8                                       1315                                  3.2142942040500001e-19                     17.057485798799998                             17.491151264500001                               179.633273312                                    2.0445067949000002e-18               -5.6863682756900001e-18     -1.0508215425e-16            200                      0                         0                         200                       1284                         18                         28                   5.4431879878800003e-19  9.5083537003500002e-19  0.99509615767000004
                  0.052574542652599997              -5.5889438035400005e-17              -9.8607613152600004e-32               1017                                 290                                       654                                     930                                  9                                       1337                                  3.8439663124499999e-19                     18.435444220499999                             18.807056925400001                               179.633273312                                    2.5036618055500001e-18               -6.2954906528599998e-18     -5.2482005819299998e-17         100                      0                         0                         100                       1305                         20                         29                   3.7206601436200002e-19  1.2402200478700001e-19  0.993977382942     
                  0.087404614458900007              -3.4468282659299999e-18              -1.2765063671400001e-30               1029                                 300                                       655                                     941                                  10                                      1360                                  4.7067943813599999e-19                     20.072693881700001                             20.584629032799999                               179.633273312                                    3.1529135054200001e-18               -7.0704212094900001e-18      0                           0                        0                         0                         0                         1327                         21                         30                  -1.44692338918e-18   -4.9608801914899998e-19  0.99238427695499998