# ODT 1.0
# Table Start
# Title: mmArchive Data Table, Tue Nov 07 09:47:34 CET 2023
# Columns: {Oxs_CGEvolve:evolver:Max mxHxm} {Oxs_CGEvolve:evolver:Total energy} {Oxs_CGEvolve:evolver:Delta E} {Oxs_CGEvolve:evolver:Bracket count} {Oxs_CGEvolve:evolver:Line min count} {Oxs_CGEvolve:evolver:Conjugate cycle count} {Oxs_CGEvolve:evolver:Cycle count} {Oxs_CGEvolve:evolver:Cycle sub count} {Oxs_CGEvolve:evolver:Energy calc count} Oxs_UniformExchange:exchange:Energy {Oxs_UniformExchange:exchange:Max Spin Ang} {Oxs_UniformExchange:exchange:Stage Max Spin Ang} {Oxs_UniformExchange:exchange:Run Max Spin Ang} Oxs_UniaxialAnisotropy:uniaxialanisotropy:Energy Oxs_DMI_T:dmi:Energy Oxs_UZeeman:hysteresis:Energy Oxs_UZeeman:hysteresis:B Oxs_UZeeman:hysteresis:Bx Oxs_UZeeman:hysteresis:By Oxs_UZeeman:hysteresis:Bz Oxs_MinDriver::Iteration {Oxs_MinDriver::Stage iteration} Oxs_MinDriver::Stage Oxs_MinDriver::mx    Oxs_MinDriver::my    Oxs_MinDriver::mz   
# Units:                 A/m                                 J                                J                                 {}                                   {}                                        {}                                      {}                                   {}                                      {}                                     J                                      deg                                            deg                                              deg                                              J                                  J                         J                          mT                       mT                        mT                        mT                        {}                           {}                         {}                 {}                   {}                   {}           
                  0.081238651022300004              -5.2962432855199998e-16              -2.9582283945799998e-31               9                                    9                                         1                                       8                                    7                                       19                                    1.17850616895e-19                       10.711616019599999                             14.106044260599999                               14.106044260599999                               6.7311399174899998e-19               -3.2603539629099998e-18     -5.2715493919800002e-16         1000                     0                         0                        -1000                      18                           18                         0                   -7.5791225147700005e-20 -1.37802227541e-20   -0.99839950605700001
                  0.079335332095999994              -4.7691354002399996e-16              -8.8746851837399999e-31               16                                   15                                        2                                       15                                   6                                       33                                    1.3014162862399999e-19                     11.2334722427                                  11.303089165499999                               14.106044260599999                               7.4982466075099997e-19               -3.44115284458e-18       -4.7435235346900003e-16         900                      0                         0                        -900                       32                           13                         1                   -5.5120891016500002e-20 -3.4450556885299999e-20 -0.99821623204800003
                  0.056328731903400001              -4.2421329158300002e-16              -9.8607613152600004e-32               23                                   22                                        3                                       22                                   6                                       48                                    1.44509712396e-19                       11.808677060699999                             12.0453204908                                    14.106044260599999                               8.4067175626799996e-19               -3.6437151712699999e-18     -4.21554757881e-16           800                      0                         0                        -800                       47                           14                         2                   -4.0651657124699999e-19  2.06703341312e-20   -0.99799895331599997
                  0.086473242495899993              -3.7152560839199998e-16              -2.4651903288199998e-31               31                                   29                                        4                                       29                                   6                                       64                                    1.61466179274e-19                       12.4458939913                                  12.537488046                                     14.106044260599999                               9.494313817730001e-19               -3.8723546102799999e-18     -3.6876415134200001e-16         700                      0                         0                        -700                       62                           14                         3                   -6.2700013531299995e-19 -8.6126392213299994e-20 -0.99773850471400005
                  0.0530974308381                  -3.18853083488e-16                -3.9443045261100004e-31               40                                   36                                        5                                       37                                   7                                       81                                    1.8169663451200001e-19                     13.155800682700001                             13.267017905499999                               14.106044260599999                               1.08126428486e-18                 -4.1326526517999998e-18     -3.15983391755e-16           600                      0                         0                        -600                       78                           15                         4                    1.06796726345e-19    2.7560445508300003e-20 -0.99742232245999995
                  0.090354568139100006              -2.6619909816099999e-16              -1.0353799381e-30                  48                                   43                                        6                                       45                                   7                                       97                                    2.0614128024299999e-19                     13.951792920700001                             14.280801961                                     14.280801961                                     1.2433931386799999e-18               -4.43198414023e-18       -2.63216648439e-16           500                      0                         0                        -500                       94                           15                         5                   -8.9571447901900005e-20  7.2346169459199998e-20 -0.99703275924000001
                  0.076053176354799995              -2.1356815753099999e-16              -2.4651903288199998e-31               56                                   51                                        7                                       53                                   7                                       114                                   2.3612479073800001e-19                     14.851429318699999                             15.2168919797                                    15.2168919797                                    1.44621589096e-18                 -4.7803425780199998e-18     -2.1047015563499999e-16         400                      0                         0                        -400                       111                          16                         6                    4.3407701675499995e-19 -7.2346169459199998e-20 -0.99654429751399998
                  0.056087180937599998              -1.6096642157100001e-16              -6.1629758220399999e-31               66                                   59                                        8                                       62                                   8                                       133                                   2.73576739924e-19                       15.8767067297                                  16.092714901499999                               16.092714901499999                               1.7052239399500001e-18               -5.1916981255000001e-18     -1.57753524125e-16           300                      0                         0                        -300                       129                          17                         7                    3.3072534609899999e-19 -1.37802227541e-20   -0.99591871291099998
                  0.083104105368999995              -1.0840258631e-16                 -1.7256332301699999e-31               75                                   68                                        9                                       71                                   8                                       152                                   3.21429420407e-19                       17.0574857985                                  17.491151648999999                               17.491151648999999                               2.04450679489e-18                 -5.6863682756900001e-18     -1.0508215425e-16            200                      0                         0                        -200                       148                          18                         8                   -2.06703341312e-19   -1.10241782033e-19   -0.99509615767000004
                  0.052599523693100003              -5.5889438035400005e-17              -8.6281661508499997e-32               86                                   78                                        10                                      81                                   9                                       174                                   3.8439663124800001e-19                     18.435444220200001                             18.8070569255                                    18.8070569255                                    2.5036618055399999e-18               -6.2954906528599998e-18     -5.2482005819299998e-17         100                      0                         0                        -100                       169                          20                         9                   -4.1340668262400001e-19 -1.3780222754099999e-19 -0.993977382942     
                  0.087404692181600005              -3.4468282659299999e-18              -1.2765063671400001e-30               98                                   88                                        11                                      92                                   10                                      197                                   4.7067943813599999e-19                     20.072693881700001                             20.584629036500001                               20.584629036500001                               3.1529135054200001e-18               -7.0704212094900001e-18      0                           0                        0                         0                         0                         191                          21                         10                  -1.5158245029499999e-19 -1.10241782033e-19   -0.99238427695499998
                  0.0941808842043                   4.8891916064799998e-17              -1.60237371373e-31                 111                                  100                                       12                                      104                                  11                                      223                                   5.9639247379100003e-19                     22.073467049800001                             22.809512166000001                               22.809512166000001                               4.1317396843300001e-18               -8.1059507496500004e-18      5.2269734656299998e-17         100                      0                         0                         100                       216                          24                         11                  -3.1694512334500001e-19 -3.7895612573899998e-19 -0.98995709576400004
                  0.0830999808719                   1.01063200395e-16                -1.12166159961e-30                 127                                  114                                       13                                      119                                  14                                      254                                   8.0101136266699998e-19                     25.719683807700001                             25.780974681699998                               25.780974681699998                               5.7780884041099999e-18               -9.6164782050599992e-18      1.04100578833e-16           200                      0                         0                         200                       245                          28                         12                  -1.0472969293099999e-18  6.7523091495300004e-19 -0.98580093591899998
                  0.081567559071499998              -1.4856207543600001e-16              -7.3955709864499996e-32               674                                  145                                       495                                     633                                  18                                      833                                   8.0703563303899999e-18                     177.65825523000001                             179.63327330300001                               179.63327330300001                               5.2905031932700002e-18               -1.36760698234e-17       -1.4824686513700001e-16         300                      0                         0                         300                       818                          572                        13                   7.9925291973999996e-19  7.2346169459199998e-20  0.93590192636799996
                  0.090992457893899995              -2.0807088119599999e-16              -2.7117093617e-31                  845                                  173                                       606                                     772                                  21                                      1033                                  3.6021222630599996e-18                     179.05359148400001                             179.08532123099999                               179.63327330300001                               1.97889926701e-18                 -6.6504311654299997e-18     -2.07001471561e-16           400                      0                         0                         400                       1009                         190                        14                   6.4353640261800003e-18 -1.26226840428e-17    0.98012060398099998
                  0.085812383079599999              -2.6619909816099999e-16              -5.9164567891599996e-31               904                                  188                                       640                                     821                                  7                                       1108                                  2.0614127960100001e-19                     13.951792581399999                             179.49450411399999                               179.63327330300001                               1.24339314066e-18                 -4.4319841428499997e-18     -2.6321664843800002e-16         500                      0                         0                         500                       1080                         70                         15                  -4.9608801914899998e-19  2.4115389819700001e-20  0.99703275923500001
                  0.060810058418499999              -3.18853083488e-16                -4.43734259187e-31                 912                                  195                                       641                                     829                                  7                                       1124                                  1.81696634486e-19                       13.155801197000001                             13.951792581399999                               179.63327330300001                               1.08126428479e-18                 -4.1326526516700003e-18     -3.15983391755e-16           600                      0                         0                         600                       1096                         15                         16                   4.4785723950899998e-19  3.4450556885299999e-20  0.99742232245999995
                  0.097604874705899999              -3.7152560839199998e-16              -2.9582283945799998e-31               919                                  202                                       642                                     836                                  6                                       1139                                  1.6146618352999999e-19                     12.445891958900001                             13.155801197000001                               179.63327330300001                               9.4943138196600004e-19               -3.8723546150300002e-18     -3.6876415134200001e-16         700                      0                         0                         700                       1111                         14                         17                  -3.1005501196799998e-20  1.03351670656e-20    0.99773850471299996
                  0.062902987876000002              -4.2421329158300002e-16              -9.8607613152600004e-32               926                                  209                                       643                                     843                                  6                                       1154                                  1.44509714784e-19                       11.808675838499999                             12.445891958900001                               179.63327330300001                               8.4067175633900005e-19               -3.6437151738900003e-18     -4.2155475788000002e-16         800                      0                         0                         800                       1126                         14                         18                  -9.30165035904e-20   -2.06703341312e-20    0.99799895331599997
                  0.088312408103099996              -4.7691354002399996e-16              -1.08468374468e-30                 933                                  215                                       644                                     850                                  6                                       1168                                  1.3014162674599999e-19                     11.2334717313                                  11.808675838499999                               179.63327330300001                               7.4982466067400004e-19               -3.4411528426300002e-18     -4.7435235346900003e-16         900                      0                         0                         900                       1140                         13                         19                  -5.1675835328000001e-20 -5.8565946705100001e-20  0.99821623204800003
                  0.061262654107199999              -5.2962432855199998e-16              -5.9164567891599996e-31               940                                  221                                       645                                     857                                  6                                       1182                                  1.17850616237e-19                       10.711615294                                   11.2334717313                                    179.63327330300001                               6.7311398077000002e-19               -3.2603539375200001e-18     -5.2715493921200003e-16         1000                     0                         0                         1000                      1154                         13                         20                  -2.5493412095200002e-19 -3.4450556885299999e-20  0.99839950608299999
                  0.079328690026699997              -4.7691354002399996e-16              -7.8886090522099998e-31               947                                  227                                       646                                     864                                  6                                       1196                                  1.30141628623e-19                       11.2334722427                                  11.45101517                                      179.63327330300001                               7.4982466075300005e-19               -3.44115284458e-18       -4.7435235346900003e-16         900                      0                         0                         900                       1168                         13                         21                  -9.30165035904e-20   -6.8901113770699994e-21  0.99821623204800003
                  0.0561297290475                  -4.2421329158300002e-16              -1.4791141972899999e-31               954                                  234                                       647                                     871                                  6                                       1211                                  1.4450971238399999e-19                     11.808677061699999                             12.045320496900001                               179.63327330300001                               8.4067175627000004e-19               -3.6437151712599997e-18     -4.21554757881e-16           800                      0                         0                         800                       1183                         14                         22                  -1.58472561673e-19    2.7560445508300003e-20  0.99799895331599997
                  0.086448879896500005              -3.7152560839199998e-16              -2.4651903288199998e-31               962                                  241                                       648                                     878                                  6                                       1227                                  1.6146617927300001e-19                     12.4458939915                                  12.5374880442                                    179.63327330300001                               9.494313817730001e-19               -3.8723546102799999e-18     -3.6876415134200001e-16         700                      0                         0                         700                       1198                         14                         23                  -1.9981322993499999e-19 -1.7225278442699999e-20  0.99773850471400005
                  0.053087825068399999              -3.18853083488e-16                -3.4512664603399999e-31               971                                  248                                       649                                     886                                  7                                       1244                                  1.8169663451200001e-19                     13.155800682600001                             13.267017904899999                               179.63327330300001                               1.08126428486e-18                 -4.1326526517999998e-18     -3.15983391755e-16           600                      0                         0                         600                       1214                         15                         24                   8.2681336524799999e-20  3.7895612573899998e-20  0.99742232245999995
                  0.090350063803499997              -2.6619909816099999e-16              -1.0353799381e-30                  979                                  255                                       650                                     894                                  7                                       1260                                  2.0614128024299999e-19                     13.951792920700001                             14.2808044937                                    179.63327330300001                               1.2433931386799999e-18               -4.43198414023e-18       -2.63216648439e-16           500                      0                         0                         500                       1230                         15                         25                  -1.37802227541e-20    1.7225278442699999e-20  0.99703275924000001
                  0.076049100541000003              -2.1356815753099999e-16              -2.4651903288199998e-31               987                                  263                                       651                                     902                                  7                                       1277                                  2.3612479073700002e-19                     14.851429318699999                             15.216892126199999                               179.63327330300001                               1.44621589096e-18                 -4.7803425780199998e-18     -2.1047015563499999e-16         400                      0                         0                         400                       1247                         16                         26                   2.7560445508300003e-20  4.4785723950900001e-20  0.99654429751399998
                  0.056088108385499998              -1.6096642157100001e-16              -6.1629758220399999e-31               997                                  271                                       652                                     911                                  8                                       1296                                  2.73576739924e-19                       15.8767067297                                  16.092714901899999                               179.63327330300001                               1.7052239399500001e-18               -5.1916981255000001e-18     -1.57753524125e-16           300                      0                         0                         300                       1265                         17                         27                  -2.9627478921400001e-19  1.5158245029499999e-19  0.99591871291099998
                  0.083107740877399999              -1.0840258631e-16                 -1.7256332301699999e-31               1006                                 280                                       653                                     920                                  8                                       1315                                  3.21429420407e-19                       17.057485798399998                             17.4911495992                                    179.63327330300001                               2.04450679489e-18                 -5.6863682756900001e-18     -1.0508215425e-16            200                      0                         0                         200                       1284                         18                         28                  -4.9608801914899998e-19  1.7914289580399999e-19  0.99509615767000004
                  0.052553319055199998              -5.5889438035400005e-17              -8.6281661508499997e-32               1017                                 290                                       654                                     930                                  9                                       1337                                  3.8439663124100002e-19                     18.435444220800001                             18.8070569255                                    179.63327330300001                               2.5036618055500001e-18               -6.2954906528599998e-18     -5.2482005819299998e-17         100                      0                         0                         100                       1305                         20                         29                   8.2681336524799999e-20  0                    0.993977382942     
                  0.087404831506200001              -3.4468282659299999e-18              -1.2765063671400001e-30               1029                                 300                                       655                                     941                                  10                                      1360                                  4.7067943813599999e-19                     20.072693881700001                             20.584629033300001                               179.63327330300001                               3.1529135054200001e-18               -7.0704212094900001e-18      0                           0                        0                         0                         0                         1327                         21                         30                  -1.37802227541e-20   -9.6461559278899996e-20  0.99238427695499998