//mumax 3.10 [linux_amd64 go1.14(gc) CUDA-11.0]
//GPU info: Quadro P1000(4006MB), CUDA Driver 11.4, cc=6.1, using cc=61 PTX
//(c) Arne Vansteenkiste, Dynamat LAB, Ghent University, Belgium
//This is free software without any warranty. See license.txt
//********************************************************************//
//  If you use mumax in any work or publication,                      //
//  we kindly ask you to cite the references in references.bib        //
//********************************************************************//
//output directory: system_name.out/
OutputFormat = OVF2_BINARY
SetGridSize(20, 10, 4)
SetCellSize(5e-09, 5e-09, 5e-09)
m.LoadFile("/home/mlang/ubermag-devtools/repos/micromagneticdata/micromagneticdata/tests/test_sample/system_name/drive-3/m0.omf")
Msat.setregion(0, 799999.9999999997)
regions.LoadFile("/home/mlang/ubermag-devtools/repos/micromagneticdata/micromagneticdata/tests/test_sample/system_name/drive-3/mumax3_regions.omf")
Aex = 1.3e-11
tableadd(E_exch)
B_ext.add(LoadFile("/home/mlang/ubermag-devtools/repos/micromagneticdata/micromagneticdata/tests/test_sample/system_name/drive-3/B_ext.ovf"), 1)
tableadd(E_Zeeman)
enabledemag = false
tableadd(E_total)
tableadd(dt)
tableadd(maxtorque)
alpha = 0.02
relax()
save(m_full)
tablesave()
//********************************************************************//
//Please cite the following references, relevant for your simulation. //
//See bibtex file in output folder for justification.                 //
//********************************************************************//
//   * Vansteenkiste et al., AIP Adv. 4, 107133 (2014).
