# t (s)	mx ()	my ()	mz ()	E_exch (J)	E_Zeeman (J)	E_total (J)	dt (s)	maxTorque (T)
0	0.9805808	9.0727653e-10	0.19611615	-0	-2.3067426e-16	-2.3067426e-16	1.0582816e-11	4.5910054e-09
