# t (s)	mx ()	my ()	mz ()	E_exch (J)	E_demag (J)	E_Zeeman (J)	E_total (J)	dt (s)	maxTorque (T)
0	0.35966858	2.3841857e-09	0.023221022	1.322714e-18	5.3092427e-19	-1.8078915e-19	1.6728491e-18	1e-15	1.992081e-06
