# ODT 1.0
# Table Start
# Title: mmArchive Data Table, Sun Sep 11 12:23:18 CEST 2022
# Columns: {Oxs_RungeKuttaEvolve:evolver:Total energy} {Oxs_RungeKuttaEvolve:evolver:Energy calc count} {Oxs_RungeKuttaEvolve:evolver:Max dm/dt} Oxs_RungeKuttaEvolve:evolver:dE/dt {Oxs_RungeKuttaEvolve:evolver:Delta E} Oxs_UniformExchange:exchange:Energy {Oxs_UniformExchange:exchange:Max Spin Ang} {Oxs_UniformExchange:exchange:Stage Max Spin Ang} {Oxs_UniformExchange:exchange:Run Max Spin Ang} Oxs_Demag:demag:Energy Oxs_FixedZeeman:zeeman:Energy Oxs_TimeDriver::Iteration {Oxs_TimeDriver::Stage iteration} Oxs_TimeDriver::Stage Oxs_TimeDriver::mx   Oxs_TimeDriver::my   Oxs_TimeDriver::mz   {Oxs_TimeDriver::Last time step} {Oxs_TimeDriver::Simulation time}
# Units:                        J                                             {}                                         deg/ns                                 J/s                                   J                                     J                                      deg                                            deg                                              deg                                 J                          J                          {}                            {}                          {}                   {}                   {}                   {}                          s                                 s                
                       1.8509620995199998e-18                            79                                           381.66384013999999                   -3.2826245079600001e-10                 -3.9972523234500001e-22                  1.33350105543e-18                       58.288727418400001                             58.288727418400001                               58.288727418400001                  5.17461044097e-19         0                           11                            11                          0                     0.335953002098       0.0025216684056700001  0.0230637653724            1.2357198736000001e-12              1.9999999999999999e-11       
                       1.8443071398599998e-18                            146                                          600.52751857400006                   -2.8826689875999999e-10                 -4.8245776701699996e-22                  1.34924387196e-18                       60.746046083700001                             60.746046083700001                               60.746046083700001                  4.95063267899e-19         0                           23                            11                          1                     0.303138370165       0.010960090677499999  0.022383280259             1.6404788883599999e-12              3.9999999999999998e-11       
                       1.8399300291099998e-18                            225                                          697.60137808299999                   -1.6145682444299999e-10                 -7.6594819947500001e-23                  1.3531629196299999e-18                     61.279943797999998                             61.407741145800003                               61.407741145800003                  4.8676710947399996e-19       0                           36                            12                          2                     0.285660312995       0.0249759538683      0.021396848814900001        4.7143699479099997e-13              6e-11                     
                       1.8372162567099999e-18                            298                                          631.34331566699996                   -1.21245471921e-10                   -6.3814506360700003e-23                  1.35020844455e-18                       59.557546145499998                             61.279943797999998                               61.407741145800003                  4.8700781216300004e-19       0                           49                            12                          3                     0.28278536985699998  0.041188434545100003  0.021075610551000001        5.2512693540499996e-13              7.9999999999999995e-11       
                       1.83500808969e-18                              377                                          523.58468407199996                   -9.7285492357199998e-11                 -5.8966443046599995e-23                  1.3475195605899999e-18                     59.443914197600002                             59.557546145499998                               61.407741145800003                  4.87488529107e-19         0                           62                            12                          4                     0.28501153655        0.056677846602699998  0.021372783713600001        6.0294732688099997e-13              1e-10                     
                       1.8333315419000001e-18                            456                                          458.50461439600002                   -7.4569610582399996e-11                 -4.6602665017100002e-23                  1.3459161459200001e-18                     61.693261007700002                             61.693261007700002                               61.693261007700002                  4.8741539598199997e-19       0                           75                            12                          5                     0.28474651620800001  0.069699817501599995  0.021803136472800001        6.23358622142e-13                1.2e-10                   
                       1.8318361275099998e-18                            529                                          491.91059019800002                   -7.9630482358000002e-11                 -4.7799787852499999e-23                  1.3455219078900001e-18                     61.803168490499999                             62.017964196100003                               62.017964196100003                  4.8631421962299998e-19       0                           88                            12                          6                     0.27904816049800002  0.080119674476199998  0.022175454442599999        6.0159039357600004e-13              1.4000000000000001e-10       
                       1.8300591089699998e-18                            608                                          591.54291728299995                   -9.8999789531400001e-11                 -7.5180613893700001e-23                  1.3459963009200001e-18                     59.674427797100002                             61.803168490499999                               62.017964196100003                  4.8406280805599999e-19       0                           101                           12                          7                     0.26886705768899999  0.0892957959286      0.022388126288999999        7.6181564860299998e-13              1.5999999999999999e-10       
                       1.8279343960000001e-18                            687                                          645.614757242                        -1.11243741579e-10                   -6.5225632998000001e-23                  1.3472038004700001e-18                     56.982465379200001                             59.674427797100002                               62.017964196100003                  4.8073059552300004e-19       0                           114                           12                          8                     0.25706054779300003  0.098953484169999995  0.022322355670600001        5.8639469790899997e-13              1.8e-10                   
                       1.8257333583399999e-18                            760                                          611.48827537800003                   -1.0671219095600001e-10                 -6.7331924991699994e-23                  1.34947014859e-18                       60.396950238099997                             60.396950238099997                               62.017964196100003                  4.76263209746e-19         0                           127                           12                          9                     0.246085922299       0.109965212412       0.022021807427099999        6.2947664137399997e-13              2.0000000000000001e-10       
                       1.82375164378e-18                              839                                          518.91890239400004                   -9.0806932515900005e-11                 -6.20588864144e-23                    1.35213176231e-18                       61.564128601100002                             61.564128601100002                               62.017964196100003                  4.7161988147099999e-19       0                           140                           12                          10                    0.23678395549199999  0.121789755724       0.021672987714499999        6.8065951289599997e-13              2.1999999999999999e-10       
                       1.8221238928799999e-18                            918                                          456.26402139599998                   -7.2650644210199996e-11                 -4.2807565130899997e-23                  1.35415490213e-18                       60.735585871300003                             61.564128601100002                               62.017964196100003                  4.6796899074299996e-19       0                           153                           12                          11                    0.22879506180199999  0.13304180839400001  0.021469980187200002        5.8683990126000004e-13              2.4e-10                   
                       1.8208188783599999e-18                            991                                          426.238843342                        -5.9653007335199995e-11                 -4.1081683520799998e-23                  1.35481604486e-18                       59.2610068742                                  60.735585871300003                               62.017964196100003                  4.6600283350099997e-19       0                           166                           12                          12                    0.22126324028        0.14253237610300001  0.021539536634499999        6.8631384451700002e-13              2.5999999999999998e-10       
                       1.81967908575e-18                              1070                                         425.91789749399999                   -5.6560116336000001e-11                 -3.4986417952899998e-23                  1.3538514329900001e-18                     61.102961487800002                             61.102961487800002                               62.017964196100003                  4.6582765275899996e-19       0                           179                           12                          13                    0.213234502716       0.14993178503400001  0.021884835391600001        6.1841765529699995e-13              2.8000000000000002e-10       
                       1.8184951957100001e-18                            1149                                         468.63782577500001                   -6.3786381373499995e-11                 -3.8116752670599999e-23                  1.3521495791299999e-18                     61.717615340999998                             61.717615340999998                               62.017964196100003                  4.6634561658499996e-19       0                           192                           12                          14                    0.204024381304       0.15582836526800001  0.022319815509500001        5.9871654335600002e-13              3e-10                     
                       1.8170879374400001e-18                            1222                                         539.80770685799996                   -7.8091951408799994e-11                 -5.2489528340099999e-23                  1.3512352881500001e-18                     61.056401923300001                             61.717615340999998                               62.017964196100003                  4.6585264929200002e-19       0                           205                           12                          15                    0.19341316093800001  0.16128332620999999  0.0225529769479            6.7389645301899997e-13              3.1999999999999998e-10       
                       1.8153841037099999e-18                            1301                                         578.28087504200005                   -9.1599632150100006e-11                 -5.6308550348700003e-23                  1.3520029296200001e-18                     58.913277265200001                             61.056401923300001                               62.017964196100003                  4.6338117409699997e-19       0                           218                           12                          16                    0.18155288192999999  0.16718726094        0.022422519212900002        6.1529833197399999e-13              3.4000000000000001e-10       
                       1.8135194323699998e-18                            1380                                         538.61027166500003                   -9.2440867501999999e-11                 -5.5270637441600004e-23                  1.3538605243300001e-18                     59.833816483500001                             59.833816483500001                               62.017964196100003                  4.59658908041e-19         0                           231                           12                          17                    0.16889487106199999  0.17366674206999999  0.022043079537699999        5.9683444637000001e-13              3.6e-10                   
                       1.81179542947e-18                              1453                                         435.47601572600001                   -7.8850927873300006e-11                 -5.3989200016399995e-23                  1.3548176611799999e-18                     61.733508766200003                             61.733508766200003                               62.017964196100003                  4.56977768287e-19         0                           244                           12                          18                    0.15620886306599999  0.179877253672       0.021765154135599998        6.8169385141400003e-13              3.7999999999999998e-10       
                       1.8103856851099999e-18                            1532                                         446.05787536000003                   -6.3310309910200003e-11                 -3.9013145188200002e-23                  1.35373510857e-18                       60.905213443999997                             61.7694444491                                    62.017964196100003                  4.5665057654500003e-19       0                           257                           12                          19                    0.14426265182699999  0.18467901258        0.021910898997000001        6.1385763735099997e-13              4.0000000000000001e-10       
                       1.8092207326299999e-18                            1611                                         460.17949359400001                   -5.5060099464499997e-11                 -3.2739745311899998e-23                  1.35172844681e-18                       58.142982878300003                             60.905213443999997                               62.017964196100003                  4.5749228582599995e-19       0                           270                           12                          20                    0.13327525425799999  0.18768092826400001  0.022436027304399999        5.93428288383e-13                4.2e-10                   
                       1.8081392428299998e-18                            1684                                         480.509456145                        -5.4596248916e-11                    -3.6596805039499997e-23                  1.35039488647e-18                       54.205044314600002                             58.142982878300003                               62.017964196100003                  4.5774435635900003e-19       0                           283                           12                          21                    0.122844290124       0.18951994126400001  0.02297157922              6.7001175634099996e-13              4.3999999999999998e-10       
                       1.8070181852600002e-18                            1763                                         494.48555348299999                   -5.8211479586599997e-11                 -3.5495709500599998e-23                  1.3505548665799999e-18                     53.829719577200002                             54.205044314600002                               62.017964196100003                  4.5646331868300004e-19       0                           296                           12                          22                    0.112391514414       0.19131330738499999  0.0231787249766            6.0981833832099995e-13              4.6000000000000001e-10       
                       1.8058297616399999e-18                            1842                                         479.10078823999999                   -6.0279326554500003e-11                 -3.58196503467e-23                    1.3522160706500001e-18                     57.959296047499997                             57.959296047499997                               62.017964196100003                  4.5361369098600003e-19       0                           309                           12                          23                    0.101637546456       0.19385191799500001  0.022967084634899999        5.9361786263599995e-13              4.8e-10                   
                       1.8046591620100001e-18                            1915                                         422.30562356899998                   -5.6083204257600001e-11                 -3.8159784173899999e-23                  1.35442566844e-18                       60.8216802034                                  60.8216802034                                    62.017964196100003                  4.5023349356199997e-19       0                           322                           12                          24                    0.090776655432500006  0.19702757764500001  0.0225213789824            6.7819654974699997e-13              5.0000000000000003e-10       
                       1.80362593278e-18                              1994                                         345.43439160999998                   -4.7435334446600003e-11                 -2.9033463627100003e-23                  1.3556902689500001e-18                     61.939842153800001                             61.939842153800001                               62.017964196100003                  4.4793566383199996e-19       0                           335                           12                          25                    0.080274638382200003  0.199906072588       0.022195336566299999        6.0971526245299999e-13              5.1999999999999996e-10       
                       1.80275842618e-18                              2073                                         348.884899131                        -4.04073917728e-11                   -2.3951793911800001e-23                  1.35528980792e-18                       61.370971695999998                             61.953072667299999                               62.017964196100003                  4.4746861826300002e-19       0                           348                           12                          26                    0.070477654647300006  0.201446689284       0.0222477076795            5.9098642374599999e-13              5.4e-10                   
                       1.8019865909200001e-18                            2146                                         370.75745702799998                   -3.7965131165299999e-11                 -2.5504978620800001e-23                  1.3538252153899999e-18                     59.4858466214                                  61.370971695999998                               62.017964196100003                  4.4816137552999997e-19       0                           361                           12                          27                    0.061361967436499999  0.201256491989       0.022627270702500001        6.7059628174100002e-13              5.6000000000000003e-10       
                       1.8012252074600002e-18                            2225                                         395.173702709                        -3.89993467101e-11                   -2.3792832819000001e-23                  1.35236716694e-18                       56.612688402899998                             59.4858466214                                    62.017964196100003                  4.4885804052300005e-19       0                           374                           12                          28                    0.052580677789499999  0.19977194290700001  0.023056289220000001        6.0974364735600004e-13              5.7999999999999996e-10       
                       1.8004251901499999e-18                            2304                                         415.82832611200001                   -4.1526024559700003e-11                 -2.4473878848199999e-23                  1.3516856066800001e-18                     54.172524149700003                             56.612688402899998                               62.017964196100003                  4.4873958346600002e-19       0                           387                           12                          29                    0.043693631396700003  0.19789053709099999  0.023284291675499998        5.892232801e-13                  6e-10                     
                       1.7995719741899998e-18                            2377                                         425.52763168600001                   -4.4112216661900003e-11                 -2.9813277804699999e-23                  1.35213714494e-18                       54.4676757334                                  54.4676757334                                    62.017964196100003                  4.4743482925300002e-19       0                           400                           12                          30                    0.034405079143700001  0.19643860501400001  0.023230169140299999        6.7552978013399999e-13              6.2000000000000003e-10       
                       1.79867900174e-18                              2456                                         414.68061247000003                   -4.5203195569900002e-11                 -2.7396286617999999e-23                  1.35359136985e-18                       58.092096011700001                             58.092096011700001                               62.017964196100003                  4.45087631884e-19         0                           413                           12                          31                    0.024703885653699999  0.19574165353600001  0.022968645108899999        6.0541452076699998e-13              6.3999999999999996e-10       
                       1.79778967142e-18                              2535                                         380.90830074299998                   -4.3749022287699997e-11                 -2.5769984033400001e-23                  1.3552886484100001e-18                     60.745304087599997                             60.745304087599997                               62.017964196100003                  4.4250102300899997e-19       0                           426                           12                          32                    0.014855117209000001  0.19543238939099999  0.0226664095703            5.8794595158700005e-13              6.6e-10                   
                       1.7969423957999998e-18                            2608                                         341.242073264                        -4.1582762181999999e-11                 -2.7761077887900002e-23                  1.3562091182700001e-18                     61.989880130400003                             61.989880130400003                               62.017964196100003                  4.4073327753000003e-19       0                           439                           12                          33                    0.0052373410213000004  0.19463004384499999  0.0225021704238            6.6632028269799995e-13              6.8000000000000003e-10       
                       1.7961164494799999e-18                            2687                                         359.370965356                        -4.2050269551200002e-11                 -2.5307675166399999e-23                  1.3559570594799999e-18                     61.693100290899999                             62.060241977399997                               62.060241977399997                  4.4015939000199998e-19       0                           452                           12                          34                   -0.0039053459766500002  0.192465386499       0.022559889915800001        6.0161826644200001e-13              6.9999999999999996e-10       
                       1.79524545414e-18                              2766                                         405.03907867300001                   -4.5841299519999997e-11                 -2.6691426320099999e-23                  1.35506854136e-18                       59.972809454                                   61.693100290899999                               62.060241977399997                  4.4017691278700002e-19       0                           465                           12                          35                   -0.0126258330034      0.18859883575700001  0.022767445910499999        5.8248958651699999e-13              7.2e-10                   
                       1.79428752301e-18                              2839                                         437.08256192699997                   -5.0135822944800002e-11                 -3.3677387674799999e-23                  1.3543830855800001e-18                     57.044554876399999                             59.972809454                                     62.060241977399997                  4.3990443742900003e-19       0                           478                           12                          36                   -0.0212123505034      0.18337106616599999  0.022964787936699999        6.7171257687000005e-13              7.4000000000000003e-10       
                       1.79326673123e-18                              2918                                         446.44598520300002                   -5.1763085324399997e-11                 -3.1063919524e-23                     1.3544550864699999e-18                     57.797226304100001                             57.797226304100001                               62.060241977399997                  4.3881164475599999e-19       0                           491                           12                          37                   -0.029968736046800001  0.177583052096       0.023031127454800002        5.9956392395700003e-13              7.5999999999999996e-10       
                       1.7922472425400001e-18                            2997                                         434.42702663699998                   -5.0127939862799997e-11                 -2.9282456127200003e-23                  1.35547555173e-18                       59.382784336999997                             59.382784336999997                               62.060241977399997                  4.3677169080600003e-19       0                           504                           12                          38                   -0.039018976507899997  0.17210115512900001  0.022939825229399999        5.8314082734999997e-13              7.7999999999999999e-10       
                       1.7912830276900001e-18                            3070                                         405.39383653900001                   -4.6475555712099999e-11                 -3.0888794503499999e-23                  1.3573258290400001e-18                     60.0119562167                                  60.0119562167                                    62.060241977399997                  4.3395719865400003e-19       0                           517                           12                          39                   -0.048240443010299998  0.167442874075       0.022732638332599999        6.6279269630599999e-13              8.0000000000000003e-10       
                       1.7904041467999999e-18                            3149                                         361.38030447199998                   -4.1690021927799999e-11                 -2.48153976183e-23                    1.3595150355899999e-18                     59.824581366399997                             60.032636269699999                               62.060241977399997                  4.3088911121e-19          0                           530                           12                          40                   -0.0573040779615      0.16351341102299999  0.022486281696100001        5.93432677171e-13                8.1999999999999996e-10       
                       1.78962626823e-18                              3228                                         308.21296941700001                   -3.6533084920599999e-11                 -2.1132936164800001e-23                  1.3612774539200001e-18                     59.032270541800003                             59.824581366399997                               62.060241977399997                  4.2834881430799998e-19       0                           543                           12                          41                   -0.065767172179399994  0.15969091146700001  0.022294280029499999        5.7653060151600003e-13              8.3999999999999999e-10       