# ODT 1.0
# Table Start
# Title: mmArchive Data Table, Tue Jun 11 14:15:15 BST 2024
# Columns: {Oxs_RungeKuttaEvolve:evolver:Total energy} {Oxs_RungeKuttaEvolve:evolver:Energy calc count} {Oxs_RungeKuttaEvolve:evolver:Max dm/dt} Oxs_RungeKuttaEvolve:evolver:dE/dt {Oxs_RungeKuttaEvolve:evolver:Delta E} Oxs_UniformExchange:exchange:Energy {Oxs_UniformExchange:exchange:Max Spin Ang} {Oxs_UniformExchange:exchange:Stage Max Spin Ang} {Oxs_UniformExchange:exchange:Run Max Spin Ang} Oxs_Demag:demag:Energy Oxs_FixedZeeman:zeeman:Energy Oxs_TimeDriver::Iteration {Oxs_TimeDriver::Stage iteration} Oxs_TimeDriver::Stage Oxs_TimeDriver::mx   Oxs_TimeDriver::my   Oxs_TimeDriver::mz   {Oxs_TimeDriver::Last time step} {Oxs_TimeDriver::Simulation time}
# Units:                        J                                             {}                                         deg/ns                                 J/s                                   J                                     J                                      deg                                            deg                                              deg                                 J                          J                          {}                            {}                          {}                   {}                   {}                   {}                          s                                 s                
                       1.85096209949e-18                              79                                           381.66355907600001                   -3.2826245319199999e-10                 -3.9975307482999998e-22                  1.33350105546e-18                       58.288727661199999                             58.288727661199999                               58.288727661199999                  5.1746104402799999e-19       0                           11                            11                          0                     0.33595300201900002  0.0025216684021299998  0.023063765374000001        1.23580732617e-12                1.9999999999999999e-11       
                       1.8443071398200002e-18                            146                                          600.52771450900002                   -2.88266891447e-10                   -4.8247116952899997e-22                  1.34924387197e-18                       60.746046279200002                             60.746046279200002                               60.746046279200002                  4.9506326784300003e-19       0                           23                            11                          1                     0.3031383701         0.010960090667200001  0.0223832802566            1.6405236251099999e-12              3.9999999999999998e-11       
                       1.8399300289199999e-18                            225                                          697.601411224                        -1.61456708408e-10                   -7.6592415115000002e-23                  1.35316291948e-18                       61.279943742999997                             61.4077414534                                    61.4077414534                       4.8676710943999997e-19       0                           36                            12                          2                     0.28566031293799998  0.024975953848700001  0.021396848814900001        4.7142267637500001e-13              6e-11                     
                       1.8372162565899998e-18                            298                                          631.34311898099998                   -1.2124540139700001e-10                 -6.3797042654400004e-23                  1.3502084444399999e-18                     59.557545907600002                             61.279943742999997                               61.4077414534                       4.8700781214699999e-19       0                           49                            12                          3                     0.28278536980000002  0.041188434517200001  0.0210756105545            5.2498392236800004e-13              7.9999999999999995e-11       
                       1.8350080896200001e-18                            377                                          523.58446388499999                   -9.7285459628200006e-11                 -5.8955007961700001e-23                  1.3475195605300001e-18                     59.443914326399998                             59.557545907600002                               61.4077414534                       4.8748852909399998e-19       0                           62                            12                          4                     0.28501153648900002  0.056677846568199998  0.021372783717999999        6.0283126120099998e-13              1e-10                     
                       1.8333315418e-18                               456                                          458.50439572400001                   -7.4569557916899999e-11                 -4.66040715334e-23                    1.34591614585e-18                       61.693260979999998                             61.693260979999998                               61.693260979999998                  4.8741539595600001e-19       0                           75                            12                          5                     0.28474651614699997  0.069699817465200001  0.021803136475800001        6.2337793841199998e-13              1.2e-10                   
                       1.8318361273900001e-18                            529                                          491.91087578600002                   -7.9630410590100004e-11                 -4.7798795795199997e-23                  1.3455219078e-18                        61.803168393299998                             62.017964555100001                               62.017964555100001                  4.8631421958700001e-19       0                           88                            12                          6                     0.27904816044199998  0.080119674443500002  0.022175454443200002        6.0157855921700005e-13              1.4000000000000001e-10       
                       1.83005910892e-18                              608                                          591.54306194499998                   -9.8999774355400004e-11                 -7.5174055706599997e-23                  1.3459963009100001e-18                     59.674427672199997                             61.803168393299998                               62.017964555100001                  4.84062808012e-19         0                           101                           12                          7                     0.268867057636       0.089295795901800007  0.022388126287600001        7.6174912998400004e-13              1.5999999999999999e-10       
                       1.82793439594e-18                              687                                          645.61483713400003                   -1.11243720586e-10                   -6.5225872676799999e-23                  1.34720380046e-18                       56.9824654365                                  59.674427672199997                               62.017964555100001                  4.8073059547699998e-19       0                           114                           12                          8                     0.25706054774100001  0.098953484148099999  0.022322355668400001        5.8639699150699999e-13              1.8e-10                   
                       1.8257333582799998e-18                            760                                          611.48831211200002                   -1.06712171533e-10                   -6.7331181872299997e-23                  1.34947014858e-18                       60.396950332499998                             60.396950332499998                               62.017964555100001                  4.7626320970500003e-19       0                           127                           12                          9                     0.24608592224600001  0.109965212391       0.022021807425600001        6.2946985634199997e-13              2.0000000000000001e-10       
                       1.82375164374e-18                              839                                          518.91888957200001                   -9.0806923046500005e-11                 -6.2058366842800003e-23                  1.3521317622999999e-18                     61.5641286818                                  61.5641286818                                    62.017964555100001                  4.7161988144000003e-19       0                           140                           12                          10                    0.23678395543799999  0.121789755698       0.021672987714599998        6.8065392591099998e-13              2.1999999999999999e-10       
                       1.8221238928399998e-18                            918                                          456.264087206                        -7.2650639213800006e-11                 -4.2807163435999997e-23                  1.35415490212e-18                       60.735585923999999                             61.5641286818                                    62.017964555100001                  4.67968990722e-19         0                           153                           12                          11                    0.22879506175        0.13304180836000001  0.021469980189499999        5.86834462569e-13                2.4e-10                   
                       1.8208188783300001e-18                            991                                          426.23888171900001                   -5.9653005522100006e-11                 -4.1081557340699999e-23                  1.35481604485e-18                       59.261006920100002                             60.735585923999999                               62.017964555100001                  4.6600283348399998e-19       0                           166                           12                          12                    0.22126324023400001  0.142532376061       0.021539536638100001        6.8631176487600001e-13              2.5999999999999998e-10       
                       1.8196790857299999e-18                            1070                                         425.91791542999999                   -5.6560118383200001e-11                 -3.4986276506100002e-23                  1.3538514329900001e-18                     61.102961535799999                             61.102961535799999                               62.017964555100001                  4.6582765273999998e-19       0                           179                           12                          13                    0.21323450267800001  0.14993178498699999  0.0218848353948            6.1841512953000002e-13              2.8000000000000002e-10       
                       1.8184951956999999e-18                            1149                                         468.63777380099998                   -6.3786385276899997e-11                 -3.81167527034e-23                    1.3521495791399999e-18                     61.717615381100003                             61.717615381100003                               62.017964555100001                  4.6634561656200002e-19       0                           192                           12                          14                    0.20402438127299999  0.155828365222       0.022319815510999999        5.9871650234000004e-13              3e-10                     
                       1.8170879374299999e-18                            1222                                         539.80767783900001                   -7.8091957488699996e-11                 -5.2489541701500001e-23                  1.3512352881700001e-18                     61.056401958499997                             61.717615381100003                               62.017964555100001                  4.6585264926399998e-19       0                           205                           12                          15                    0.19341316091300001  0.16128332616800001  0.022552976947600001        6.7389656120300001e-13              3.1999999999999998e-10       
                       1.8153841037e-18                               1301                                         578.28086547999999                   -9.1599639007699996e-11                 -5.6308538481600005e-23                  1.3520029296400001e-18                     58.913277299599997                             61.056401958499997                               62.017964555100001                  4.6338117406600001e-19       0                           218                           12                          16                    0.18155288190900001  0.16718726090200001  0.0224225192114            6.1529814331000005e-13              3.4000000000000001e-10       
                       1.81351943234e-18                              1380                                         538.61027079300004                   -9.2440859589300003e-11                 -5.5272633753500002e-23                  1.3538605243300001e-18                     59.833816442500002                             59.833816442500002                               62.017964555100001                  4.5965890801000004e-19       0                           231                           12                          17                    0.16889487104299999  0.173666742033       0.022043079536200001        5.9685602599100001e-13              3.6e-10                   
                       1.81179542945e-18                              1453                                         435.47602096399999                   -7.88509268804e-11                   -5.3988629039399999e-23                  1.3548176611899999e-18                     61.7335087413                                  61.7335087413                                    62.017964555100001                  4.5697776826000001e-19       0                           244                           12                          18                    0.15620886304699999  0.179877253633       0.021765154134999999        6.8168668143699997e-13              3.7999999999999998e-10       
                       1.8103856851000001e-18                            1532                                         446.05785629500002                   -6.3310309947399995e-11                 -3.9013152717100001e-23                  1.35373510857e-18                       60.905213428000003                             61.7694444129                                    62.017964555100001                  4.5665057652399998e-19       0                           257                           12                          19                    0.14426265180799999  0.184679012537       0.021910898997500001        6.1385775554200003e-13              4.0000000000000001e-10       
                       1.8092207326099999e-18                            1611                                         460.17948483499998                   -5.50601004101e-11                   -3.2739764573400003e-23                  1.35172844681e-18                       58.142982864700002                             60.905213428000003                               62.017964555100001                  4.5749228580699998e-19       0                           270                           12                          20                    0.13327525423700001  0.18768092821599999  0.022436027305400001        5.9342862761499998e-13              4.2e-10                   
                       1.8081392428099998e-18                            1684                                         480.50945240499999                   -5.4596250822799997e-11                 -3.6596822349599999e-23                  1.35039488647e-18                       54.205044300200001                             58.142982864700002                               62.017964555100001                  4.5774435633799998e-19       0                           283                           12                          21                    0.1228442901         0.18951994121400001  0.022971579220699999        6.7001204759199995e-13              4.3999999999999998e-10       
                       1.80701818523e-18                              1763                                         494.485551434                        -5.8211474247599995e-11                 -3.5496308635199998e-23                  1.3505548665699999e-18                     53.829719563899999                             54.205044300200001                               62.017964555100001                  4.5646331865800002e-19       0                           296                           12                          22                    0.112391514387       0.19131330733599999  0.0231787249765            6.0982870227799997e-13              4.6000000000000001e-10       
                       1.8058297616199999e-18                            1842                                         479.10078524099998                   -6.0279325312699994e-11                 -3.5819391525800002e-23                  1.3522160706600001e-18                     57.959296049899997                             57.959296049899997                               62.017964555100001                  4.5361369095799999e-19       0                           309                           12                          23                    0.101637546424       0.19385191794699999  0.0229670846341            5.9361359082299998e-13              4.8e-10                   
                       1.8046591619799999e-18                            1915                                         422.30561950100002                   -5.6083203064e-11                    -3.8159794597900002e-23                  1.35442566845e-18                       60.821680211500002                             60.821680211500002                               62.017964555100001                  4.5023349353600002e-19       0                           322                           12                          24                    0.090776655398199999  0.19702757759600001  0.022521378981700001        6.7819674919399996e-13              5.0000000000000003e-10       
                       1.80362593276e-18                              1994                                         345.43438849400002                   -4.7435334108799998e-11                 -2.9033447354e-23                     1.3556902689500001e-18                     61.939842159900003                             61.939842159900003                               62.017964555100001                  4.4793566381200004e-19       0                           335                           12                          25                    0.080274638346699997  0.19990607253600001  0.022195336566599999        6.0971492752499997e-13              5.1999999999999996e-10       
                       1.80275842616e-18                              2073                                         348.884902318                        -4.0407391678699998e-11                 -2.39518117841e-23                    1.35528980791e-18                       61.3709716937                                  61.953072668899999                               62.017964555100001                  4.4746861824899995e-19       0                           348                           12                          26                    0.070477654611599994  0.20144668922600001  0.022247707681100001        5.9098686853699998e-13              5.4e-10                   
                       1.8019865909000001e-18                            2146                                         370.75746218900002                   -3.7965129285399999e-11                 -2.5505049900599999e-23                  1.3538252153799999e-18                     59.485846610400003                             61.3709716937                                    62.017964555100001                  4.4816137551900002e-19       0                           361                           12                          27                    0.061361967400299998  0.20125649192299999  0.022627270704800001        6.7059819993099995e-13              5.6000000000000003e-10       
                       1.8012252074400001e-18                            2225                                         395.17370859300001                   -3.8999345623000001e-11                 -2.3792809071599999e-23                  1.35236716693e-18                       56.612688384499997                             59.485846610400003                               62.017964555100001                  4.4885804050800004e-19       0                           374                           12                          28                    0.052580677751300001  0.19977194283800001  0.023056289221999999        6.0974306097600003e-13              5.7999999999999996e-10       
                       1.8004251901299999e-18                            2304                                         415.82832842900001                   -4.1526023993899998e-11                 -2.4473849808799999e-23                  1.3516856066800001e-18                     54.172524122699997                             56.612688384499997                               62.017964555100001                  4.4873958344499997e-19       0                           387                           12                          29                    0.043693631354599999  0.19789053702100001  0.023284291676400001        5.8922258838500002e-13              6e-10                     
                       1.7995719741699998e-18                            2377                                         425.52762914300001                   -4.4112216319800003e-11                 -2.9813263070999998e-23                  1.35213714495e-18                       54.467675761700001                             54.467675761700001                               62.017964555100001                  4.4743482922400004e-19       0                           400                           12                          30                    0.034405079096599997  0.19643860494599999  0.02323016914              6.7552944893999999e-13              6.2000000000000003e-10       
                       1.7986790017099998e-18                            2456                                         414.68060711599998                   -4.5203195504400002e-11                 -2.7396282846600001e-23                  1.35359136986e-18                       58.092096039799998                             58.092096039799998                               62.017964555100001                  4.4508763185000002e-19       0                           413                           12                          31                    0.024703885601600001  0.195741653471       0.022968645107700001        6.0541443819399997e-13              6.3999999999999996e-10       
                       1.7977896713900002e-18                            2535                                         380.90829611300001                   -4.37490222037e-11                   -2.5770003040900001e-23                  1.3552886484199999e-18                     60.745304106299997                             60.745304106299997                               62.017964555100001                  4.4250102297499998e-19       0                           426                           12                          32                    0.0148551171535      0.195432389323       0.022666409569100002        5.8794638837e-13                 6.6e-10                   
                       1.79694239577e-18                              2608                                         341.24207121500001                   -4.15827621879e-11                   -2.7761089655200002e-23                  1.3562091182700001e-18                     61.989880134800003                             61.989880134800003                               62.017964555100001                  4.4073327750099996e-19       0                           439                           12                          33                    0.0052373409638599997  0.19463004377099999  0.022502170423400001        6.6632056923900001e-13              6.8000000000000003e-10       
                       1.7961164494599999e-18                            2687                                         359.37097445799998                   -4.2050269660500003e-11                 -2.5307675315300001e-23                  1.3559570594799999e-18                     61.693100279900001                             62.060241972                                     62.060241972                        4.4015938997600002e-19       0                           452                           12                          34                   -0.0039053460354899999  0.19246538641300001  0.022559889916400001        6.0161826939499996e-13              6.9999999999999996e-10       
                       1.79524545412e-18                              2766                                         405.039087107                        -4.58412993793e-11                   -2.66914380228e-23                    1.35506854136e-18                       59.972809431400002                             61.693100279900001                               62.060241972                        4.4017691275800004e-19       0                           465                           12                          35                   -0.0126258330646      0.18859883565900001  0.022767445911400001        5.82489842464e-13                7.2e-10                   
                       1.7942875229800001e-18                            2839                                         437.082567665                        -5.0135823081400001e-11                 -3.36773612589e-23                    1.3543830855900001e-18                     57.044554847699999                             59.972809431400002                               62.060241972                        4.3990443739299997e-19       0                           478                           12                          36                   -0.021212350568299999  0.18337106606        0.022964787936799999        6.7171204400600002e-13              7.4000000000000003e-10       
                       1.7932667312000002e-18                            2918                                         446.44598729299997                   -5.1763085407200001e-11                 -3.1063921547199997e-23                  1.35445508649e-18                       57.797226350999999                             57.797226350999999                               62.060241972                        4.3881164471000002e-19       0                           491                           12                          37                   -0.029968736115099998  0.17758305198800001  0.0230311274537            5.9956396048199999e-13              7.5999999999999996e-10       
                       1.7922472425099999e-18                            2997                                         434.42702704700002                   -5.0127939819000001e-11                 -2.9282475672899999e-23                  1.35547555175e-18                       59.382784378700002                             59.382784378700002                               62.060241972                        4.3677169075299998e-19       0                           504                           12                          38                   -0.0390189765772      0.17210115502699999  0.022939825227299999        5.8314121783800003e-13              7.7999999999999999e-10       
                       1.7912830276599999e-18                            3070                                         405.39383799199999                   -4.6475555514e-11                    -3.0888812398799997e-23                  1.3573258290599999e-18                     60.011956245500002                             60.011956245500002                               62.060241972                        4.3395719860000004e-19       0                           517                           12                          39                   -0.048240443076100002  0.167442873981       0.022732638330299999        6.6279308647300005e-13              8.0000000000000003e-10       
                       1.7904041467799999e-18                            3149                                         361.38030882499999                   -4.1690021813999999e-11                 -2.4815398347000001e-23                  1.3595150356099999e-18                     59.824581376899999                             60.032636305499999                               62.060241972                        4.30889111162e-19         0                           530                           12                          40                   -0.057304078018399998  0.16351341093499999  0.0224862816945            5.9343269851300004e-13              8.1999999999999996e-10       
                       1.78962626821e-18                              3228                                         308.21297740400001                   -3.6533084805999999e-11                 -2.11329299024e-23                    1.3612774539400001e-18                     59.032270533800002                             59.824581376899999                               62.060241972                        4.2834881427200001e-19       0                           543                           12                          41                   -0.0657671722224      0.159690911381       0.0222942800292            5.7653043198000003e-13              8.3999999999999999e-10       