# ODT 1.0
# Table Start
# Title: mmArchive Data Table, Tue Nov 07 09:47:28 CET 2023
# Columns: {Oxs_RungeKuttaEvolve:evolver:Total energy} {Oxs_RungeKuttaEvolve:evolver:Energy calc count} {Oxs_RungeKuttaEvolve:evolver:Max dm/dt} Oxs_RungeKuttaEvolve:evolver:dE/dt {Oxs_RungeKuttaEvolve:evolver:Delta E} Oxs_UniformExchange:exchange:Energy {Oxs_UniformExchange:exchange:Max Spin Ang} {Oxs_UniformExchange:exchange:Stage Max Spin Ang} {Oxs_UniformExchange:exchange:Run Max Spin Ang} Oxs_Demag:demag:Energy Oxs_FixedZeeman:zeeman:Energy Oxs_TimeDriver::Iteration {Oxs_TimeDriver::Stage iteration} Oxs_TimeDriver::Stage Oxs_TimeDriver::mx   Oxs_TimeDriver::my   Oxs_TimeDriver::mz   {Oxs_TimeDriver::Last time step} {Oxs_TimeDriver::Simulation time}
# Units:                        J                                             {}                                         deg/ns                                 J/s                                   J                                     J                                      deg                                            deg                                              deg                                 J                          J                          {}                            {}                          {}                   {}                   {}                   {}                          s                                 s                
                       1.85096209926e-18                              79                                           381.663046248                        -3.2826230572699999e-10                 -3.9977307799700002e-22                  1.3335010552999999e-18                     58.2887281219                                  58.2887281219                                    58.2887281219                       5.1746104396299996e-19       0                           11                            11                          0                     0.33595300197799999  0.0025216683852899999  0.023063765376099998        1.2358708420600001e-12              1.9999999999999999e-11       
                       1.8443071386900001e-18                            146                                          600.52796192100004                   -2.88266091147e-10                   -4.8089524695300001e-22                  1.3492438709799999e-18                     60.746045927200001                             60.746045927200001                               60.746045927200001                  4.9506326770800004e-19       0                           23                            11                          1                     0.30313837002900001  0.0109600906368      0.022383280254699999        1.63526273e-12                   3.9999999999999998e-11       
                       1.8399300296300001e-18                            225                                          697.59843526899999                   -1.6145722485999999e-10                 -7.5952268998699998e-23                  1.3531629202899999e-18                     61.279939616599997                             61.407713352400002                               61.407713352400002                  4.8676710933399997e-19       0                           36                            12                          2                     0.28566031285799998  0.024975953805900002  0.021396848814199999        4.6750553224899996e-13              6e-11                     
                       1.8372162561600002e-18                            298                                          631.34134592199996                   -1.21245150546e-10                   -6.3738444677799997e-23                  1.3502084440300001e-18                     59.557544919199998                             61.279939616599997                               61.407713352400002                  4.8700781213300002e-19       0                           49                            12                          3                     0.28278536973399998  0.041188434465799999  0.021075610558099998        5.2450432548400003e-13              7.9999999999999995e-11       
                       1.8350080896299999e-18                            377                                          523.58497117700006                   -9.7285521226899998e-11                 -5.8815432643499998e-23                  1.3475195604800001e-18                     59.443912859299999                             59.557544919199998                               61.407713352400002                  4.8748852915900002e-19       0                           62                            12                          4                     0.28501153643499999  0.056677846507499997  0.021372783723099999        6.01410963244e-13                1e-10                     
                       1.8333315414000001e-18                            456                                          458.50688072200001                   -7.4569274043599994e-11                 -4.6599491061399997e-23                  1.34591614544e-18                       61.693260024700002                             61.693260024700002                               61.693260024700002                  4.8741539595999998e-19       0                           75                            12                          5                     0.28474651610200002  0.069699817403400005  0.021803136479             6.2331927214000001e-13              1.2e-10                   
                       1.8318361268e-18                               529                                          491.910803042                        -7.9629945049200006e-11                 -4.7783534111200001e-23                  1.3455219072900001e-18                     61.803168296000003                             62.017962285000003                               62.017962285000003                  4.8631421950699996e-19       0                           88                            12                          6                     0.279048160401       0.080119674384500003  0.022175454443400001        6.0138982356600004e-13              1.4000000000000001e-10       
                       1.8300591089899999e-18                            608                                          591.54254011600005                   -9.8999813760699999e-11                 -7.5100593235699998e-23                  1.34599630102e-18                       59.6744299932                                  61.803168296000003                               62.017962285000003                  4.8406280797100003e-19       0                           101                           12                          7                     0.26886705759399998  0.089295795845100001  0.0223881262851            7.6100200803899995e-13              1.5999999999999999e-10       
                       1.8279343956999999e-18                            687                                          645.61436436500003                   -1.11243588408e-10                   -6.5249669212200005e-23                  1.3472038002000001e-18                     56.982469081200001                             59.6744299932                                    62.017962285000003                  4.8073059549800003e-19       0                           114                           12                          8                     0.25706054769300002  0.098953484093300001  0.022322355665300001        5.8661218599799996e-13              1.8e-10                   
                       1.8257333580600001e-18                            760                                          611.48842469299996                   -1.06712104026e-10                   -6.7319592724200001e-23                  1.34947014824e-18                       60.3969531523                                  60.3969531523                                    62.017962285000003                  4.7626320982300003e-19       0                           127                           12                          9                     0.24608592219600001  0.109965212338       0.0220218074234            6.2936279868099999e-13              2.0000000000000001e-10       
                       1.8237516435799999e-18                            839                                          518.92015191999997                   -9.0806868660899999e-11                 -6.2051520486999999e-23                  1.35213176209e-18                       61.5641280348                                  61.5641280348                                    62.017962285000003                  4.7161988148999996e-19       0                           140                           12                          10                    0.23678395538899999  0.12178975564400001  0.021672987714599998        6.8057953592800004e-13              2.1999999999999999e-10       
                       1.82212389287e-18                              918                                          456.26299126599997                   -7.26506629643e-11                   -4.2792454811099998e-23                  1.3541549022e-18                        60.735582755099998                             61.5641280348                                    62.017962285000003                  4.6796899066800001e-19       0                           153                           12                          11                    0.22879506170399999  0.133041808299       0.021469980192099999        5.86632800267e-13                2.4e-10                   
                       1.8208188783700001e-18                            991                                          426.23533602200001                   -5.9652991299800003e-11                 -4.10791960753e-23                    1.3548160450300001e-18                     59.261010279799997                             60.735582755099998                               62.017962285000003                  4.66002833344e-19         0                           166                           12                          12                    0.221263240193       0.14253237598999999  0.021539536642             6.86271771444e-13                2.5999999999999998e-10       
                       1.81967908581e-18                              1070                                         425.91282987400001                   -5.6560145531400002e-11                 -3.4986643617499998e-23                  1.35385143319e-18                       61.102961787799998                             61.102961787799998                               62.017962285000003                  4.6582765261899997e-19       0                           179                           12                          13                    0.21323450264499999  0.14993178491199999  0.021884835398199999        6.18421444798e-13                2.8000000000000002e-10       
                       1.81849519563e-18                              1149                                         468.63814023999998                   -6.3786369126600004e-11                 -3.8125668775999998e-23                  1.3521495791099999e-18                     61.717613321199998                             61.717613321199998                               62.017962285000003                  4.6634561652300004e-19       0                           192                           12                          14                    0.20402438124899999  0.155828365148       0.022319815512300001        5.9885770250499998e-13              3e-10                     
                       1.8170879373800001e-18                            1222                                         539.80853970600003                   -7.8091993536800001e-11                 -5.24916044414e-23                    1.35123528808e-18                       61.056399219100001                             61.717613321199998                               62.017962285000003                  4.6585264929500004e-19       0                           205                           12                          15                    0.19341316089999999  0.16128332610000001  0.022552976946899998        6.7392339592499999e-13              3.1999999999999998e-10       
                       1.8153841036299998e-18                            1301                                         578.28154623                         -9.1599642127600002e-11                 -5.6307547741800001e-23                  1.35200292955e-18                       58.9132760711                                  61.056399219100001                               62.017962285000003                  4.63381174083e-19         0                           218                           12                          16                    0.18155288190400001  0.167187260841       0.022422519209699999        6.1528718165700001e-13              3.4000000000000001e-10       
                       1.8135194323699998e-18                            1380                                         538.610334567                        -9.2440878875500002e-11                 -5.5263920801800002e-23                  1.3538605243999999e-18                     59.833815931899998                             59.833815931899998                               62.017962285000003                  4.5965890796399997e-19       0                           231                           12                          17                    0.16889487104500001  0.17366674197599999  0.0220430795348            5.9676146774800005e-13              3.6e-10                   
                       1.8117954294999999e-18                            1453                                         435.47565572100001                   -7.8850917519999994e-11                 -5.3984800419799999e-23                  1.35481766133e-18                       61.733509836800003                             61.733509836800003                               62.017962285000003                  4.5697776816599999e-19       0                           244                           12                          18                    0.156208863049       0.179877253574       0.0217651541345            6.81637972564e-13                3.7999999999999998e-10       
                       1.8103856851600001e-18                            1532                                         446.05846258100001                   -6.3310326068100002e-11                 -3.9014567755099998e-23                  1.3537351086999999e-18                     60.905214731999997                             61.769444025699997                               62.017962285000003                  4.5665057646100002e-19       0                           257                           12                          19                    0.14426265180600001  0.184679012473       0.021910898997700001        6.1387988581300002e-13              4.0000000000000001e-10       
                       1.8092207325400001e-18                            1611                                         460.181428461                        -5.5060071311100002e-11                 -3.2747512836299998e-23                  1.35172844673e-18                       58.142983166400001                             60.905214731999997                               62.017962285000003                  4.5749228580800002e-19       0                           270                           12                          20                    0.13327525422700001  0.187680928148       0.022436027305500001        5.9356996871000003e-13              4.2e-10                   
                       1.8081392427300002e-18                            1684                                         480.51158451200001                   -5.4596264956599998e-11                 -3.6598702452899999e-23                  1.3503948863400001e-18                     54.205043306100002                             58.142983166400001                               62.017962285000003                  4.5774435638699997e-19       0                           283                           12                          21                    0.122844290087       0.18951994114699999  0.022971579220399999        6.7004727738300001e-13              4.3999999999999998e-10       
                       1.8070181851299999e-18                            1763                                         494.48658912000002                   -5.8211464529899995e-11                 -3.54955424454e-23                    1.3505548664400001e-18                     53.829717817000002                             54.205043306100002                               62.017962285000003                  4.5646331868500002e-19       0                           296                           12                          22                    0.11239151437        0.19131330727000001  0.023178724975800001        6.0981560782600001e-13              4.6000000000000001e-10       
                       1.8058297616500001e-18                            1842                                         479.100178529                        -6.0279359742200001e-11                 -3.5811202186800002e-23                  1.3522160707299999e-18                     57.9592979775                                  57.9592979775                                    62.017962285000003                  4.5361369091700002e-19       0                           309                           12                          23                    0.10163754640600001  0.193851917884       0.022967084633600001        5.9347689001899996e-13              4.8e-10                   
                       1.8046591620399999e-18                            1915                                         422.30384020000002                   -5.6083206397999998e-11                 -3.8157120105700001e-23                  1.3544256686000001e-18                     60.821683663400002                             60.821683663400002                               62.017962285000003                  4.5023349344300004e-19       0                           322                           12                          24                    0.090776655376400006  0.197027577531       0.0225213789819            6.7814830544399996e-13              5.0000000000000003e-10       
                       1.8036259328300002e-18                            1994                                         345.43234708900002                   -4.7435353552099999e-11                 -2.9034335505800003e-23                  1.35569026908e-18                       61.939845102900001                             61.939845102900001                               62.017962285000003                  4.4793566375799995e-19       0                           335                           12                          25                    0.080274638321399999  0.199906072464       0.022195336567700001        6.0973323614599997e-13              5.1999999999999996e-10       
                       1.8027584261e-18                               2073                                         348.88791813799997                   -4.0407365327500001e-11                 -2.3957435112399999e-23                  1.3552898078199999e-18                     61.3709727265                                  61.953069759400002                               62.017962285000003                  4.4746861827899997e-19       0                           348                           12                          26                    0.070477654582199997  0.201446689146       0.022247707682699999        5.9112665454199998e-13              5.4e-10                   
                       1.8019865908e-18                               2146                                         370.76105090999999                   -3.7965129140899999e-11                 -2.5507086742400001e-23                  1.35382521519e-18                       59.4858456137                                  61.3709727265                                    62.017962285000003                  4.4816137561099996e-19       0                           361                           12                          27                    0.061361967368699998  0.20125649184        0.022627270706499999        6.7065321111600002e-13              5.6000000000000003e-10       
                       1.8012252073200001e-18                            2225                                         395.17669494799998                   -3.8999332141800002e-11                 -2.3792370107800001e-23                  1.3523671667499999e-18                     56.612686032299997                             59.4858456137                                    62.017962285000003                  4.48858040571e-19         0                           374                           12                          28                    0.052580677717099997  0.19977194275400001  0.023056289223200001        6.0973219733899998e-13              5.7999999999999996e-10       
                       1.8004251901299999e-18                            2304                                         415.82962781499998                   -4.1526053355099997e-11                 -2.4468242822800001e-23                  1.3516856067199999e-18                     54.172525433600001                             56.612686032299997                               62.017962285000003                  4.4873958341700003e-19       0                           387                           12                          29                    0.043693631317799998  0.19789053694        0.0232842916769            5.8908623908299995e-13              6e-10                     
                       1.7995719742299998e-18                            2377                                         425.52702454299998                   -4.4112235843799997e-11                 -2.9810192278500001e-23                  1.3521371451199999e-18                     54.467679924899997                             54.467679924899997                               62.017962285000003                  4.47434829117e-19         0                           400                           12                          30                    0.034405079055000003  0.196438604864       0.0232301691399            6.7545820268199995e-13              6.2000000000000003e-10       
                       1.7986790017899999e-18                            2456                                         414.67882216599997                   -4.5203219091899999e-11                 -2.7396922442800002e-23                  1.3535913700399999e-18                     58.092100349500001                             58.092100349500001                               62.017962285000003                  4.45087631751e-19         0                           413                           12                          31                    0.0247038855547      0.195741653387       0.022968645107099998        6.0542799085299996e-13              6.3999999999999996e-10       
                       1.7977896713500002e-18                            2535                                         380.90655714600001                   -4.3749002279399997e-11                 -2.57759104204e-23                    1.3552886483900001e-18                     60.745306870900002                             60.745306870900002                               62.017962285000003                  4.4250102295799999e-19       0                           426                           12                          32                    0.014855117100899999  0.195432389235       0.022666409568399999        5.8808196777700001e-13              6.6e-10                   
                       1.7969423956499999e-18                            2608                                         341.24101223000002                   -4.1582735464700002e-11                 -2.7764452778800003e-23                  1.35620911808e-18                       61.989880997                                   61.989880997                                     62.017962285000003                  4.40733277571e-19         0                           439                           12                          33                    0.0052373409072800003  0.19463004367699999  0.022502170423100001        6.6640305751400005e-13              6.8000000000000003e-10       
                       1.7961164493199998e-18                            2687                                         359.37419064400001                   -4.2050247691899999e-11                 -2.5307353667299999e-23                  1.35595705925e-18                       61.693099509500001                             62.060239141499999                               62.060239141499999                  4.40159390064e-19         0                           452                           12                          34                   -0.0039053460954099999  0.19246538630999999  0.0225598899167            6.0161139052699999e-13              6.9999999999999996e-10       
                       1.79524545408e-18                              2766                                         405.04205238600002                   -4.5841317887099997e-11                 -2.66857460288e-23                    1.3550685412999999e-18                     59.972808407499997                             61.693099509500001                               62.060239141499999                  4.4017691277700001e-19       0                           465                           12                          35                   -0.012625833127699999  0.188598835548       0.022767445911900001        5.8236472037800005e-13              7.2e-10                   
                       1.79428752305e-18                              2839                                         437.08461382399997                   -5.0135863422900002e-11                 -3.3672562828800002e-23                  1.35438308573e-18                       57.044554988900003                             59.972808407499997                               62.060239141499999                  4.3990443732399997e-19       0                           478                           12                          36                   -0.021212350635100002  0.18337106593899999  0.022964787936599999        6.7161450970199997e-13              7.4000000000000003e-10       
                       1.7932667312799998e-18                            2918                                         446.44685156000003                   -5.17631119603e-11                   -3.1064230839500002e-23                  1.3544550866600001e-18                     57.797229380099999                             57.797229380099999                               62.060239141499999                  4.3881164461900002e-19       0                           491                           12                          37                   -0.029968736184900001  0.177583051863       0.023031127452400001        5.99569149486e-13                7.5999999999999996e-10       
                       1.7922472425000001e-18                            2997                                         434.42731859999998                   -5.0127933496799999e-11                 -2.92880087955e-23                    1.35547555178e-18                       59.382789195599997                             59.382789195599997                               62.060239141499999                  4.3677169072000003e-19       0                           504                           12                          38                   -0.039018976647399999  0.17210115490399999  0.022939825224999998        5.8325172316999997e-13              7.7999999999999999e-10       
                       1.79128302753e-18                              3070                                         405.39440709100001                   -4.6475505017699998e-11                 -3.08939309775e-23                    1.35732582889e-18                       60.011960450700002                             60.011960450700002                               62.060239141499999                  4.3395719863900002e-19       0                           517                           12                          39                   -0.048240443142400002  0.167442873868       0.022732638327699999        6.6290470953600005e-13              8.0000000000000003e-10       
                       1.7904041466399998e-18                            3149                                         361.38172807299998                   -4.1690002408800001e-11                 -2.48152327957e-23                    1.3595150354e-18                        59.8245826936                                  60.032642998999997                               62.060239141499999                  4.30889111237e-19         0                           530                           12                          40                   -0.057304078075000001  0.16351341083000001  0.022486281692599999        5.9342980415599997e-13              8.1999999999999996e-10       
                       1.78962626813e-18                              3228                                         308.21548508199999                   -3.6533091127400002e-11                 -2.11298196941e-23                    1.36127745382e-18                       59.032268196899999                             59.8245826936                                    62.060239141499999                  4.2834881430699998e-19       0                           543                           12                          41                   -0.065767172263600002  0.159690911282       0.0222942800289            5.7644544706700004e-13              8.3999999999999999e-10       