# ODT 1.0
# Table Start
# Title: mmArchive Data Table, Sun Jun 14 22:40:50 BST 2020
# Columns: {Oxs_RungeKuttaEvolve:evolver:Total energy} {Oxs_RungeKuttaEvolve:evolver:Energy calc count} {Oxs_RungeKuttaEvolve:evolver:Max dm/dt} Oxs_RungeKuttaEvolve:evolver:dE/dt {Oxs_RungeKuttaEvolve:evolver:Delta E} Oxs_UniformExchange::Energy {Oxs_UniformExchange::Max Spin Ang} {Oxs_UniformExchange::Stage Max Spin Ang} {Oxs_UniformExchange::Run Max Spin Ang} Oxs_FixedZeeman::Energy Oxs_TimeDriver::Iteration {Oxs_TimeDriver::Stage iteration} Oxs_TimeDriver::Stage Oxs_TimeDriver::mx   Oxs_TimeDriver::my   Oxs_TimeDriver::mz   {Oxs_TimeDriver::Last time step} {Oxs_TimeDriver::Simulation time}
# Units:                        J                                             {}                                         deg/ns                                 J/s                                   J                                 J                              deg                                    deg                                      deg                              J                       {}                            {}                          {}                   {}                   {}                   {}                          s                                 s                
                      -2.5655650417199999e-17                            37                                           12515.385738200001                   -4.3354926774299999e-07                 -1.04645659459e-19                0                               0                                      0                                        0                              -2.5655650417199999e-17      6                             6                           0                     0.26141537039899998 -0.96472622612400005 -0.031069482576999999        2.4130404819800002e-13              4.9999999999999999e-13       
                      -2.58723023769e-17                              44                                           12508.293302                         -4.33058024516e-07                   -2.16651959658e-19                0                               0                                      0                                        0                              -2.58723023769e-17        8                             1                           1                     0.284657971462      -0.94886018464199995 -0.13650710342200001        4.9999999999999999e-13              9.9999999999999998e-13       
                      -2.60887078228e-17                              51                                           12501.145328799999                   -4.3256321637400001e-07                 -2.1640544595999999e-19              0                               0                                      0                                        0                              -2.60887078228e-17        10                            1                           2                     0.30740151905899998 -0.920957323617      -0.239461717519             4.9999999999999999e-13              1.5000000000000001e-12       
                      -2.63048649772e-17                              58                                           12493.941986399999                   -4.32064861518e-07                   -2.16157154351e-19                0                               0                                      0                                        0                              -2.63048649772e-17        12                            1                           3                     0.32938371726499999 -0.88138615421199995 -0.33862193367299998        4.9999999999999999e-13              2e-12                     
                      -2.6520772071099999e-17                            65                                           12486.6834437                        -4.31562978246e-07                   -2.15907093955e-19                0                               0                                      0                                        0                              -2.6520772071099999e-17      14                            1                           4                     0.35035222818799999 -0.830663225964      -0.43272615039500001        4.9999999999999999e-13              2.4999999999999998e-12       
                      -2.67364273451e-17                              72                                           12479.3698707                        -4.3105758495300002e-07                 -2.15655273947e-19                0                               0                                      0                                        0                              -2.67364273451e-17        16                            1                           5                     0.37006787325000001 -0.76944637866700005 -0.52057856231699995        4.9999999999999999e-13              3.0000000000000001e-12       
                      -2.6951829048599999e-17                            79                                           12472.0014383                        -4.3054870013000002e-07                 -2.1540170354700001e-19              0                               0                                      0                                        0                              -2.6951829048599999e-17      18                            1                           6                     0.38830766307499998 -0.69852620173699997 -0.60106430960699997        4.9999999999999999e-13              3.5e-12                   
                      -2.71669754407e-17                              86                                           12464.578318600001                   -4.3003634235900001e-07                 -2.1514639202400001e-19              0                               0                                      0                                        0                              -2.71669754407e-17        20                            1                           7                     0.40486761753299999 -0.618815812046      -0.67316357821499995        4.9999999999999999e-13              3.9999999999999999e-12       
                      -2.7381864789399999e-17                            93                                           12457.100684700001                   -4.2952053031699998e-07                 -2.1488934869300001e-19              0                               0                                      0                                        0                              -2.7381864789399999e-17      22                            1                           8                     0.419565340244      -0.53133908256999995 -0.73596447237600005        4.9999999999999999e-13              4.4999999999999998e-12       
                      -2.7596495372299999e-17                            100                                          12449.5687106                        -4.2900128277100002e-07                 -2.1463058291500001e-19              0                               0                                      0                                        0                              -2.7596495372299999e-17      24                            1                           9                     0.43224231499499999 -0.43721747380100001 -0.78867449669099998        4.9999999999999999e-13              4.9999999999999997e-12       
# Table End
