# ODT 1.0
# Table Start
# Title: mmArchive Data Table, Thu Oct 25 13:36:28 CEST 2018
# Columns: {Oxs_RungeKuttaEvolve:evolver:Total energy} {Oxs_RungeKuttaEvolve:evolver:Energy calc count} {Oxs_RungeKuttaEvolve:evolver:Max dm/dt} Oxs_RungeKuttaEvolve:evolver:dE/dt {Oxs_RungeKuttaEvolve:evolver:Delta E} Oxs_UniformExchange::Energy {Oxs_UniformExchange::Max Spin Ang} {Oxs_UniformExchange::Stage Max Spin Ang} {Oxs_UniformExchange::Run Max Spin Ang} Oxs_FixedZeeman::Energy Oxs_TimeDriver::Iteration {Oxs_TimeDriver::Stage iteration} Oxs_TimeDriver::Stage Oxs_TimeDriver::mx   Oxs_TimeDriver::my   Oxs_TimeDriver::mz   {Oxs_TimeDriver::Last time step} {Oxs_TimeDriver::Simulation time}
# Units:                        J                                             {}                                         deg/ns                                 J/s                                   J                                 J                              deg                                    deg                                      deg                              J                       {}                            {}                          {}                   {}                   {}                   {}                          s                                 s                
                      -5.4385156013305886e-18                            37                                           12408.729175234907                   -1.1516333034737301e-07                 -8.5179843788955502e-20              0                               0                                      0                                        0                              -5.4385156013305886e-18      6                             6                           0                     0.95589123479908344  0.21477140490627511  0.20036264838753584        7.3916244509402759e-13              9.9999999999999998e-13       
                      -5.553576129812757e-18                            44                                           12397.628087094483                   -1.1495736785033898e-07                 -1.1506052848216719e-19              0                               0                                      0                                        0                              -5.553576129812757e-18      8                             1                           1                     0.88476659430780957  0.41871976516437698  0.20460164187427268        9.9999999999999998e-13              2e-12                     
                      -5.6684287262409402e-18                            51                                           12386.305051366759                   -1.147474773852538e-07                 -1.1485259642818366e-19              0                               0                                      0                                        0                              -5.6684287262409402e-18      10                            1                           2                     0.77075073406630945  0.60194027490456814  0.20883297484845878        9.9999999999999998e-13              3.0000000000000001e-12       
                      -5.783069477968369e-18                            58                                           12374.76111749343                    -1.1453368965597123e-07                 -1.1464075172742942e-19              0                               0                                      0                                        0                              -5.783069477968369e-18      12                            1                           3                     0.61946988159337124  0.75555541971374174  0.21305650316262337        9.9999999999999998e-13              3.9999999999999999e-12       
                      -5.8974945032939688e-18                            65                                           12362.997352999681                   -1.1431603584795082e-07                 -1.1442502532559996e-19              0                               0                                      0                                        0                              -5.8974945032939688e-18      14                            1                           4                     0.43835451831562022  0.87214572054755224  0.21727208380937912        9.9999999999999998e-13              4.9999999999999997e-12       
# Table End
