# ODT 1.0
# Table Start
# Title: mmArchive Data Table, Sun Jun 14 22:40:54 BST 2020
# Columns: {Oxs_RungeKuttaEvolve:evolver:Total energy} {Oxs_RungeKuttaEvolve:evolver:Energy calc count} {Oxs_RungeKuttaEvolve:evolver:Max dm/dt} Oxs_RungeKuttaEvolve:evolver:dE/dt {Oxs_RungeKuttaEvolve:evolver:Delta E} Oxs_UniformExchange::Energy {Oxs_UniformExchange::Max Spin Ang} {Oxs_UniformExchange::Stage Max Spin Ang} {Oxs_UniformExchange::Run Max Spin Ang} Oxs_FixedZeeman::Energy Oxs_TimeDriver::Iteration {Oxs_TimeDriver::Stage iteration} Oxs_TimeDriver::Stage Oxs_TimeDriver::mx   Oxs_TimeDriver::my   Oxs_TimeDriver::mz   {Oxs_TimeDriver::Last time step} {Oxs_TimeDriver::Simulation time}
# Units:                        J                                             {}                                         deg/ns                                 J/s                                   J                                 J                              deg                                    deg                                      deg                              J                       {}                            {}                          {}                   {}                   {}                   {}                          s                                 s                
                      -2.0142990188399999e-17                            37                                           12418.606354699999                   -4.2687006469299998e-07                 -3.1582071605599998e-19              0                               0                                      0                                        0                              -2.0142990188399999e-17      6                             6                           0                     0.95585272895399997  0.21493956161300001  0.200366028571             7.3937008700199997e-13              9.9999999999999998e-13       
                      -2.0569478888999999e-17                            44                                           12407.4873051                        -4.2610600720400001e-07                 -4.2648870057799998e-19              0                               0                                      0                                        0                              -2.0569478888999999e-17      8                             1                           1                     0.88461780973500004  0.41903071175000001  0.20460839012599999        9.9999999999999998e-13              2e-12                     
                      -2.099519622e-17                                51                                           12396.145778599999                   -4.2532736706800001e-07                 -4.2571733103200002e-19              0                               0                                      0                                        0                              -2.099519622e-17          10                            1                           2                     0.77043096087399998  0.60234599940199995  0.20884307872499999        9.9999999999999998e-13              3.0000000000000001e-12       
                      -2.1420127655800001e-17                            58                                           12384.5828282                        -4.2453425836800002e-07                 -4.24931435767e-19                0                               0                                      0                                        0                              -2.1420127655800001e-17      12                            1                           3                     0.61893572272899999  0.75598926420199997  0.21306994988              9.9999999999999998e-13              3.9999999999999999e-12       
                      -2.18442587856e-17                              65                                           12372.7995247                        -4.2372679697999999e-07                 -4.2413112976599998e-19              0                               0                                      0                                        0                              -2.18442587856e-17        14                            1                           4                     0.43758484469199999  0.87252796798200005  0.21728886024399999        9.9999999999999998e-13              4.9999999999999997e-12       
# Table End
