# t (s)	mx ()	my ()	mz ()	E_exch (J)	E_demag (J)	E_total (J)	dt (s)	maxTorque (T)
0	-8.270145e-09	4.7683715e-09	0.022980222	1.3653334e-18	3.9868467e-19	1.764018e-18	1.636818e-13	2.880959e-07
