# t (s)	mx ()	my ()	mz ()	E_exch (J)	E_Zeeman (J)	E_total (J)	dt (s)	maxTorque (T)
0	0.98058075	9.072766e-10	0.19611615	-0	-1.0252189e-16	-1.0252189e-16	1.0582816e-11	4.5910054e-09
