# OOMMF OVF 2.0
#
# Segment count: 1
#
# Begin: Segment
# Begin: Header
#
# Title: Oxs_MinDriver::Magnetization
# Desc: Oxs vector field output
# Desc:  MIF source file: /Users/sergii.mamedov/Documents/joommf/micromagneticdata/micromagneticdata/tests/test_files/simulation_files/drive-5/simulation_files.mif
# Desc:  Iteration: 13, State id: 44
# Desc:  Stage: 0, Stage iteration: 13
# Desc:  Stage simulation time: -1 s
# Desc:  Total simulation time: -2 s
# meshunit: m
# meshtype: rectangular
# xbase: 5.0000000000000001e-09
# ybase: 7.4999999999999993e-09
# zbase: 2.5000000000000001e-09
# xnodes: 3
# ynodes: 2
# znodes: 6
# xstepsize: 1e-08
# ystepsize: 1.4999999999999999e-08
# zstepsize: 5.0000000000000001e-09
# xmin: 0
# ymin: 0
# zmin: 0
# xmax: 3.0000000000000004e-08
# ymax: 2.9999999999999997e-08
# zmax: 3.0000000000000004e-08
# valuedim: 3
# valuelabels: Magnetization_x Magnetization_y Magnetization_z
# valueunits: A/m A/m A/m
#
# End: Header
#
# Begin: Data Text
 -3.44815866521751e-06 -6.86039728484839e-06 799999.999999999
 -3.44815866521751e-06 -6.86039728484839e-06 799999.999999999
 -3.44815866521751e-06 -6.86039728484839e-06 799999.999999999
 -3.44815866521751e-06 -6.86039728484839e-06 799999.999999999
 -3.44815866521751e-06 -6.86039728484839e-06 799999.999999999
 -3.44815866521751e-06 -6.86039728484839e-06 799999.999999999
 -3.44815866521751e-06 -6.86039728484839e-06 799999.999999999
 -3.44815866521751e-06 -6.86039728484839e-06 799999.999999999
 -3.44815866521751e-06 -6.86039728484839e-06 799999.999999999
 -3.44815866521751e-06 -6.86039728484839e-06 799999.999999999
 -3.44815866521751e-06 -6.86039728484839e-06 799999.999999999
 -3.44815866521751e-06 -6.86039728484839e-06 799999.999999999
 -3.44815866521751e-06 -6.86039728484839e-06 799999.999999999
 -3.44815866521751e-06 -6.86039728484839e-06 799999.999999999
 -3.44815866521751e-06 -6.86039728484839e-06 799999.999999999
 -3.44815866521751e-06 -6.86039728484839e-06 799999.999999999
 -3.44815866521751e-06 -6.86039728484839e-06 799999.999999999
 -3.44815866521751e-06 -6.86039728484839e-06 799999.999999999
 -3.44815866521751e-06 -6.86039728484839e-06 799999.999999999
 -3.44815866521751e-06 -6.86039728484839e-06 799999.999999999
 -3.44815866521751e-06 -6.86039728484839e-06 799999.999999999
 -3.44815866521751e-06 -6.86039728484839e-06 799999.999999999
 -3.44815866521751e-06 -6.86039728484839e-06 799999.999999999
 -3.44815866521751e-06 -6.86039728484839e-06 799999.999999999
 -3.44815866521751e-06 -6.86039728484839e-06 799999.999999999
 -3.44815866521751e-06 -6.86039728484839e-06 799999.999999999
 -3.44815866521751e-06 -6.86039728484839e-06 799999.999999999
 -3.44815866521751e-06 -6.86039728484839e-06 799999.999999999
 -3.44815866521751e-06 -6.86039728484839e-06 799999.999999999
 -3.44815866521751e-06 -6.86039728484839e-06 799999.999999999
 -3.44815866521751e-06 -6.86039728484839e-06 799999.999999999
 -3.44815866521751e-06 -6.86039728484839e-06 799999.999999999
 -3.44815866521751e-06 -6.86039728484839e-06 799999.999999999
 -3.44815866521751e-06 -6.86039728484839e-06 799999.999999999
 -3.44815866521751e-06 -6.86039728484839e-06 799999.999999999
 -3.44815866521751e-06 -6.86039728484839e-06 799999.999999999
# End: Data Text
# End: Segment
