# ODT 1.0
# Table Start
# Title: mmArchive Data Table, Sun Sep 11 12:23:18 CEST 2022
# Columns: {Oxs_CGEvolve:evolver:Max mxHxm} {Oxs_CGEvolve:evolver:Total energy} {Oxs_CGEvolve:evolver:Delta E} {Oxs_CGEvolve:evolver:Bracket count} {Oxs_CGEvolve:evolver:Line min count} {Oxs_CGEvolve:evolver:Conjugate cycle count} {Oxs_CGEvolve:evolver:Cycle count} {Oxs_CGEvolve:evolver:Cycle sub count} {Oxs_CGEvolve:evolver:Energy calc count} Oxs_UniformExchange:exchange:Energy {Oxs_UniformExchange:exchange:Max Spin Ang} {Oxs_UniformExchange:exchange:Stage Max Spin Ang} {Oxs_UniformExchange:exchange:Run Max Spin Ang} Oxs_Demag:demag:Energy Oxs_MinDriver::Iteration {Oxs_MinDriver::Stage iteration} Oxs_MinDriver::Stage Oxs_MinDriver::mx    Oxs_MinDriver::my    Oxs_MinDriver::mz   
# Units:                 A/m                                 J                                J                                 {}                                   {}                                        {}                                      {}                                   {}                                      {}                                     J                                      deg                                            deg                                              deg                                 J                       {}                           {}                         {}                 {}                   {}                   {}           
                  0.079822402974700002               1.7655116584499999e-18              -1.77185554884e-32                 68                                   57                                        2                                       60                                   52                                      126                                   1.3656775138300001e-18                     57.026254343799998                             89.954200011500006                               89.954200011500006                  3.9983414461699999e-19     119                          119                        0                   -2.32830643654e-17   -1.30967237055e-17    0.0229380335287    
# Table End
