# ODT 1.0
# Table Start
# Title: mmArchive Data Table, Tue Jun 11 14:15:01 BST 2024
# Columns: {Oxs_CGEvolve:evolver:Max mxHxm} {Oxs_CGEvolve:evolver:Total energy} {Oxs_CGEvolve:evolver:Delta E} {Oxs_CGEvolve:evolver:Bracket count} {Oxs_CGEvolve:evolver:Line min count} {Oxs_CGEvolve:evolver:Conjugate cycle count} {Oxs_CGEvolve:evolver:Cycle count} {Oxs_CGEvolve:evolver:Cycle sub count} {Oxs_CGEvolve:evolver:Energy calc count} Oxs_UniformExchange:exchange:Energy {Oxs_UniformExchange:exchange:Max Spin Ang} {Oxs_UniformExchange:exchange:Stage Max Spin Ang} {Oxs_UniformExchange:exchange:Run Max Spin Ang} Oxs_Demag:demag:Energy Oxs_MinDriver::Iteration {Oxs_MinDriver::Stage iteration} Oxs_MinDriver::Stage Oxs_MinDriver::mx    Oxs_MinDriver::my    Oxs_MinDriver::mz   
# Units:                 A/m                                 J                                J                                 {}                                   {}                                        {}                                      {}                                   {}                                      {}                                     J                                      deg                                            deg                                              deg                                 J                       {}                           {}                         {}                 {}                   {}                   {}           
                  0.080032639557900007               1.7655116584499999e-18              -1.77185554884e-32                 68                                   57                                        2                                       60                                   52                                      126                                   1.3656775138799999e-18                     57.026254349600002                             89.954200011500006                               89.954200011500006                  3.9983414457700001e-19     119                          119                        0                    2.32830643654e-17    2.61934474111e-17    0.022938033519199999
# Table End
