# ODT 1.0
# Table Start
# Title: mmArchive Data Table, Tue Nov 07 09:47:27 CET 2023
# Columns: {Oxs_CGEvolve:evolver:Max mxHxm} {Oxs_CGEvolve:evolver:Total energy} {Oxs_CGEvolve:evolver:Delta E} {Oxs_CGEvolve:evolver:Bracket count} {Oxs_CGEvolve:evolver:Line min count} {Oxs_CGEvolve:evolver:Conjugate cycle count} {Oxs_CGEvolve:evolver:Cycle count} {Oxs_CGEvolve:evolver:Cycle sub count} {Oxs_CGEvolve:evolver:Energy calc count} Oxs_UniformExchange:exchange:Energy {Oxs_UniformExchange:exchange:Max Spin Ang} {Oxs_UniformExchange:exchange:Stage Max Spin Ang} {Oxs_UniformExchange:exchange:Run Max Spin Ang} Oxs_Demag:demag:Energy Oxs_MinDriver::Iteration {Oxs_MinDriver::Stage iteration} Oxs_MinDriver::Stage Oxs_MinDriver::mx    Oxs_MinDriver::my    Oxs_MinDriver::mz   
# Units:                 A/m                                 J                                J                                 {}                                   {}                                        {}                                      {}                                   {}                                      {}                                     J                                      deg                                            deg                                              deg                                 J                       {}                           {}                         {}                 {}                   {}                   {}           
                  0.080030280774600004               1.7655116584499999e-18              -1.77185554884e-32                 68                                   57                                        2                                       60                                   52                                      126                                   1.3656775138899999e-18                     57.026254353600002                             89.954200011500006                               89.954200011500006                  3.99834144562e-19       119                          119                        0                    1.1641532182699999e-16  4.3655745685099999e-18  0.0229380335132    
# Table End
