# t (s)	mx ()	my ()	mz ()	E_exch (J)	E_Zeeman (J)	E_total (J)	dt (s)	maxTorque (T)
0	0.9805807	1.5837091e-34	0.19611615	-0	-1.0252187e-16	-1.0252187e-16	1e-15	8.2664755e-09
