# t (s)	mx ()	my ()	mz ()	E_exch (J)	E_Zeeman (J)	E_total (J)	dt (s)	maxTorque (T)
0	0.9805806	3.8219289e-34	0.19611615	-0	-2.306742e-16	-2.306742e-16	1e-15	8.2664755e-09
