# OOMMF OVF 2.0
# 
# Segment count: 1
# 
# Begin: Segment
# Begin: Header
# 
# Title: Field generated omf file
# Desc: File generated by Field class
# meshunit: m
# meshtype: rectangular
# xbase: 5e-09
# ybase: 7.5e-09
# zbase: 2.5e-09
# xnodes: 3
# ynodes: 2
# znodes: 6
# xstepsize: 1e-08
# ystepsize: 1.5e-08
# zstepsize: 5e-09
# xmin: 0
# ymin: 0
# zmin: 0
# xmax: 3e-08
# ymax: 3e-08
# zmax: 3e-08
# valuedim: 3
# valuelabels: field_x field_y field_z
# valueunits: A/m A/m A/m
# 
# End: Header
# 
# Begin: Data Text
 350683.614652496 697716.576438042 173817.667047504
 350683.614652496 697716.576438042 173817.667047504
 350683.614652496 697716.576438042 173817.667047504
 350683.614652496 697716.576438042 173817.667047504
 350683.614652496 697716.576438042 173817.667047504
 350683.614652496 697716.576438042 173817.667047504
 350683.614652496 697716.576438042 173817.667047504
 350683.614652496 697716.576438042 173817.667047504
 350683.614652496 697716.576438042 173817.667047504
 350683.614652496 697716.576438042 173817.667047504
 350683.614652496 697716.576438042 173817.667047504
 350683.614652496 697716.576438042 173817.667047504
 350683.614652496 697716.576438042 173817.667047504
 350683.614652496 697716.576438042 173817.667047504
 350683.614652496 697716.576438042 173817.667047504
 350683.614652496 697716.576438042 173817.667047504
 350683.614652496 697716.576438042 173817.667047504
 350683.614652496 697716.576438042 173817.667047504
 350683.614652496 697716.576438042 173817.667047504
 350683.614652496 697716.576438042 173817.667047504
 350683.614652496 697716.576438042 173817.667047504
 350683.614652496 697716.576438042 173817.667047504
 350683.614652496 697716.576438042 173817.667047504
 350683.614652496 697716.576438042 173817.667047504
 350683.614652496 697716.576438042 173817.667047504
 350683.614652496 697716.576438042 173817.667047504
 350683.614652496 697716.576438042 173817.667047504
 350683.614652496 697716.576438042 173817.667047504
 350683.614652496 697716.576438042 173817.667047504
 350683.614652496 697716.576438042 173817.667047504
 350683.614652496 697716.576438042 173817.667047504
 350683.614652496 697716.576438042 173817.667047504
 350683.614652496 697716.576438042 173817.667047504
 350683.614652496 697716.576438042 173817.667047504
 350683.614652496 697716.576438042 173817.667047504
 350683.614652496 697716.576438042 173817.667047504
# End: Data Text
# End: Segment
