# ODT 1.0
# Table Start
# Title: mmArchive Data Table, Thu Oct 25 13:36:29 CEST 2018
# Columns: {Oxs_CGEvolve::Max mxHxm} {Oxs_CGEvolve::Total energy} {Oxs_CGEvolve::Delta E} {Oxs_CGEvolve::Bracket count} {Oxs_CGEvolve::Line min count} {Oxs_CGEvolve::Conjugate cycle count} {Oxs_CGEvolve::Cycle count} {Oxs_CGEvolve::Cycle sub count} {Oxs_CGEvolve::Energy calc count} Oxs_UniformExchange::Energy {Oxs_UniformExchange::Max Spin Ang} {Oxs_UniformExchange::Stage Max Spin Ang} {Oxs_UniformExchange::Run Max Spin Ang} Oxs_FixedZeeman::Energy Oxs_MinDriver::Iteration {Oxs_MinDriver::Stage iteration} Oxs_MinDriver::Stage Oxs_MinDriver::mx    Oxs_MinDriver::my    Oxs_MinDriver::mz   
# Units:              A/m                         J                          J                         {}                             {}                                {}                               {}                            {}                               {}                              J                              deg                                    deg                                      deg                              J                       {}                           {}                         {}                 {}                   {}                   {}           
              9.5977576390326218e-06        -2.7143360527015791e-17      -1.4121719539104078e-27        12                             3                                 8                                8                             0                                16                             0                               0                                      0                                        0                              -2.7143360527015791e-17      13                           13                         0                   -4.3101983315218835e-12 -8.575496606060485e-12  0.99999999999999978
# Table End
