# ODT 1.0
# Table Start
# Title: mmArchive Data Table, Sun Jun 14 22:40:56 BST 2020
# Columns: {Oxs_CGEvolve:evolver:Max mxHxm} {Oxs_CGEvolve:evolver:Total energy} {Oxs_CGEvolve:evolver:Delta E} {Oxs_CGEvolve:evolver:Bracket count} {Oxs_CGEvolve:evolver:Line min count} {Oxs_CGEvolve:evolver:Conjugate cycle count} {Oxs_CGEvolve:evolver:Cycle count} {Oxs_CGEvolve:evolver:Cycle sub count} {Oxs_CGEvolve:evolver:Energy calc count} Oxs_UniformExchange::Energy {Oxs_UniformExchange::Max Spin Ang} {Oxs_UniformExchange::Stage Max Spin Ang} {Oxs_UniformExchange::Run Max Spin Ang} Oxs_FixedZeeman::Energy Oxs_MinDriver::Iteration {Oxs_MinDriver::Stage iteration} Oxs_MinDriver::Stage Oxs_MinDriver::mx    Oxs_MinDriver::my    Oxs_MinDriver::mz   
# Units:                 A/m                                 J                                J                                 {}                                   {}                                        {}                                      {}                                   {}                                      {}                                 J                              deg                                    deg                                      deg                              J                       {}                           {}                         {}                 {}                   {}                   {}           
                  9.2316288968899992e-06              -1.0053096491500001e-16              -5.2614064149800001e-27               12                                   3                                         8                                       8                                    0                                       16                                0                               0                                      0                                        0                              -1.0053096491500001e-16      13                           13                         0                   -4.1385089116800004e-12 -8.25201285008e-12    1                  
# Table End
