# ODT 1.0
# Table Start
# Title: mmArchive Data Table, Tue Nov 07 09:47:27 CET 2023
# Columns: {Oxs_CGEvolve:evolver:Max mxHxm} {Oxs_CGEvolve:evolver:Total energy} {Oxs_CGEvolve:evolver:Delta E} {Oxs_CGEvolve:evolver:Bracket count} {Oxs_CGEvolve:evolver:Line min count} {Oxs_CGEvolve:evolver:Conjugate cycle count} {Oxs_CGEvolve:evolver:Cycle count} {Oxs_CGEvolve:evolver:Cycle sub count} {Oxs_CGEvolve:evolver:Energy calc count} Oxs_UniformExchange:exchange:Energy {Oxs_UniformExchange:exchange:Max Spin Ang} {Oxs_UniformExchange:exchange:Stage Max Spin Ang} {Oxs_UniformExchange:exchange:Run Max Spin Ang} Oxs_Demag:demag:Energy Oxs_FixedZeeman:zeeman:Energy Oxs_MinDriver::Iteration {Oxs_MinDriver::Stage iteration} Oxs_MinDriver::Stage Oxs_MinDriver::mx    Oxs_MinDriver::my    Oxs_MinDriver::mz   
# Units:                 A/m                                 J                                J                                 {}                                   {}                                        {}                                      {}                                   {}                                      {}                                     J                                      deg                                            deg                                              deg                                 J                          J                          {}                           {}                         {}                 {}                   {}                   {}           
                  0.096147160144999994               1.67436355178e-18                -1.5985218538400001e-32               239                                  217                                       5                                       229                                  197                                     457                                   1.3230744762000001e-18                     58.126412496999997                             66.250375963699994                               66.250375963699994                  5.3204291622100004e-19      -1.8075384064099999e-19         445                          445                        0                    0.35959834026199999 -1.8917489796900001e-17  0.023177777728000001
# Table End
