# ODT 1.0
# Table Start
# Title: mmArchive Data Table, Tue Nov 07 09:47:26 CET 2023
# Columns: {Oxs_CGEvolve:evolver:Max mxHxm} {Oxs_CGEvolve:evolver:Total energy} {Oxs_CGEvolve:evolver:Delta E} {Oxs_CGEvolve:evolver:Bracket count} {Oxs_CGEvolve:evolver:Line min count} {Oxs_CGEvolve:evolver:Conjugate cycle count} {Oxs_CGEvolve:evolver:Cycle count} {Oxs_CGEvolve:evolver:Cycle sub count} {Oxs_CGEvolve:evolver:Energy calc count} Oxs_UniformExchange:exchange:Energy {Oxs_UniformExchange:exchange:Max Spin Ang} {Oxs_UniformExchange:exchange:Stage Max Spin Ang} {Oxs_UniformExchange:exchange:Run Max Spin Ang} Oxs_FixedZeeman:zeeman:Energy Oxs_MinDriver::Iteration {Oxs_MinDriver::Stage iteration} Oxs_MinDriver::Stage Oxs_MinDriver::mx    Oxs_MinDriver::my    Oxs_MinDriver::mz   
# Units:                 A/m                                 J                                J                                 {}                                   {}                                        {}                                      {}                                   {}                                      {}                                     J                                      deg                                            deg                                              deg                                     J                          {}                           {}                         {}                 {}                   {}                   {}           
                  976107.34781299997               -2.1844258035800001e-17              -2.1844258035800001e-17               0                                    0                                         1                                       1                                    0                                       1                                     0                                       0                                              0                                                0                                     -2.1844258035800001e-17         0                            0                          0                    0.43758484544300003  0.87252796946199995  0.21728885278599999
                  975917.35586799996               -2.1929883426100001e-17              -8.56253903517e-20                 1                                    0                                         1                                       1                                    0                                       2                                     0                                       0                                              0                                                0                                     -2.1929883426100001e-17         1                            1                          0                    0.43749967284800001  0.87235813846300003  0.21814058429399999
                  923546.27058500005               -3.8552319049299997e-17              -1.6622435623099999e-17               2                                    0                                         1                                       1                                    0                                       3                                     0                                       0                                              0                                                0                                     -3.8552319049299997e-17         2                            2                          0                    0.41402193414299998  0.825544397328       0.383487009022     
                  842923.70726199995               -5.4088987356800001e-17              -1.5536668307600001e-17               3                                    0                                         2                                       2                                    0                                       4                                     0                                       0                                              0                                                0                                     -5.4088987356800001e-17         3                            3                          0                    0.37787917587999997  0.75347707642700001  0.53803310654199998
                  736689.33363400004               -6.7982189153899998e-17              -1.38932017971e-17                 4                                    0                                         3                                       3                                    0                                       5                                     0                                       0                                              0                                                0                                     -6.7982189153899998e-17         4                            4                          0                    0.33025475007400001  0.65851573583599998  0.67623134037800003
                  608071.02738600003               -7.9809786534199995e-17              -1.18275973803e-17                 5                                    0                                         4                                       4                                    0                                       6                                     0                                       0                                              0                                                0                                     -7.9809786534199995e-17         5                            5                          0                    0.27259570080399997  0.54354572783699995  0.79388262712699997
                  460976.79067000002               -8.9212403936300002e-17              -9.40261740214e-18                 6                                    0                                         5                                       5                                    0                                       7                                     0                                       0                                              0                                                0                                     -8.9212403936300002e-17         6                            6                          0                    0.206653969105       0.41206035794500001  0.88741219197400001
                  308422.18647999997               -9.5630037699799997e-17              -6.4176337634500004e-18               7                                    0                                         6                                       6                                    0                                       8                                     0                                       0                                              0                                                0                                     -9.5630037699799997e-17         7                            7                          0                    0.13826437748299999  0.275694046059       0.95124957549900002
                  299876.00743499998               -9.5904347588499997e-17              -2.7430988874200001e-19               8                                    0                                         6                                       6                                    0                                       9                                     0                                       0                                              0                                                0                                     -9.5904347588499997e-17         8                            8                          0                    0.13443316112699999  0.26805474258899997  0.95397818641999999
                  161442.677134                    -9.9212208889000001e-17              -3.3078613005200001e-18               9                                    0                                         7                                       7                                    0                                       10                                    0                                       0                                              0                                                0                                     -9.9212208889000001e-17         9                            9                          0                    0.072374077584399996  0.14431122927199999  0.98688209123500004
                  129663.643459                    -9.9682286169200004e-17              -4.7007728014100002e-19               10                                   0                                         7                                       7                                    0                                       11                                    0                                       0                                              0                                                0                                     -9.9682286169200004e-17         10                           10                         0                    0.058127669573899997  0.115904419523       0.991558036408     
                  35006.850542200002               -1.00469346709e-16                -7.8706053936600003e-19               11                                   0                                         8                                       8                                    0                                       12                                    0                                       0                                              0                                                0                                     -1.00469346709e-16           11                           11                         0                    0.0156934248249      0.031292107665500002  0.99938707236699997
                  10.230931181900001               -1.0053096491e-16                 -6.1618201065100005e-20               12                                   1                                         8                                       8                                    0                                       14                                    0                                       0                                              0                                                0                                     -1.0053096491e-16            12                           12                         0                    4.5864836997799999e-06  9.1452785698999996e-06  0.99999999994800004
                  9.3047403416100007e-06              -1.0053096491500001e-16              -5.2613694371299997e-27               12                                   3                                         8                                       8                                    0                                       16                                    0                                       0                                              0                                                0                                     -1.0053096491500001e-16         13                           13                         0                   -4.17127432797e-12   -8.3173711775799994e-12  1                  
# Table End
