# ODT 1.0
# Table Start
# Title: mmArchive Data Table, Fri Feb 11 12:51:47 CET 2022
# Columns: {Oxs_CGEvolve:evolver:Max mxHxm} {Oxs_CGEvolve:evolver:Total energy} {Oxs_CGEvolve:evolver:Delta E} {Oxs_CGEvolve:evolver:Bracket count} {Oxs_CGEvolve:evolver:Line min count} {Oxs_CGEvolve:evolver:Conjugate cycle count} {Oxs_CGEvolve:evolver:Cycle count} {Oxs_CGEvolve:evolver:Cycle sub count} {Oxs_CGEvolve:evolver:Energy calc count} Oxs_UniformExchange:exchange:Energy {Oxs_UniformExchange:exchange:Max Spin Ang} {Oxs_UniformExchange:exchange:Stage Max Spin Ang} {Oxs_UniformExchange:exchange:Run Max Spin Ang} Oxs_FixedZeeman:zeeman:Energy Oxs_UZeeman:hysteresis:Energy Oxs_UZeeman:hysteresis:B Oxs_UZeeman:hysteresis:Bx Oxs_UZeeman:hysteresis:By Oxs_UZeeman:hysteresis:Bz Oxs_MinDriver::Iteration {Oxs_MinDriver::Stage iteration} Oxs_MinDriver::Stage Oxs_MinDriver::mx    Oxs_MinDriver::my    Oxs_MinDriver::mz   
# Units:                 A/m                                 J                                J                                 {}                                   {}                                        {}                                      {}                                   {}                                      {}                                     J                                      deg                                            deg                                              deg                                     J                             J                          mT                       mT                        mT                        mT                        {}                           {}                         {}                 {}                   {}                   {}           
                  1.8026330238900001e-05              -2.0106192983000001e-16              -2.0106192983000001e-16               0                                    0                                         1                                       1                                    0                                       1                                     0                                       0                                              0                                                0                                     -1.0053096491500001e-16          -1.0053096491500001e-16         1256.63706144            0                         0                         1256.63706144             0                            0                          0                   -4.0405668429400004e-12 -8.0567341434699997e-12  1                  
                  1.7125013727000002e-05              -1.91008833338e-16                 1.0053096491499999e-17               0                                    0                                         2                                       2                                    0                                       2                                     0                                       0                                              0                                                0                                     -1.0053096491500001e-16          -9.0477868423400006e-17         1130.97335529            0                         0                         1130.97335529             1                            0                          1                   -4.0405668429400004e-12 -8.0567341434699997e-12  1                  
                  1.6223697215000002e-05              -1.8095573684699999e-16               1.0053096491499999e-17               0                                    0                                         3                                       3                                    0                                       3                                     0                                       0                                              0                                                0                                     -1.0053096491500001e-16          -8.0424771931899994e-17         1005.30964915            0                         0                         1005.30964915             2                            0                          2                   -4.0405668429400004e-12 -8.0567341434699997e-12  1                  
                  1.5322380703099999e-05              -1.70902640355e-16                 1.0053096491499999e-17               0                                    0                                         4                                       4                                    0                                       4                                     0                                       0                                              0                                                0                                     -1.0053096491500001e-16          -7.0371675440399995e-17         879.64594300500005       0                         0                         879.64594300500005        3                            0                          3                   -4.0405668429400004e-12 -8.0567341434699997e-12  1                  
                  1.44210641912e-05                -1.6084954386399999e-16               1.0053096491499999e-17               0                                    0                                         5                                       5                                    0                                       5                                     0                                       0                                              0                                                0                                     -1.0053096491500001e-16          -6.0318578948899996e-17         753.98223686200004       0                         0                         753.98223686200004        4                            0                          4                   -4.0405668429400004e-12 -8.0567341434699997e-12  1                  
                  1.35197476792e-05                -1.50796447372e-16                 1.0053096491499999e-17               0                                    0                                         6                                       6                                    0                                       6                                     0                                       0                                              0                                                0                                     -1.0053096491500001e-16          -5.0265482457400002e-17         628.31853071800003       0                         0                         628.31853071800003        5                            0                          5                   -4.0405668429400004e-12 -8.0567341434699997e-12  1                  
                  1.2618431167300001e-05              -1.4074335088099999e-16               1.0053096491499999e-17               0                                    0                                         7                                       7                                    0                                       7                                     0                                       0                                              0                                                0                                     -1.0053096491500001e-16          -4.0212385965900003e-17         502.65482457399997       0                         0                         502.65482457399997        6                            0                          6                   -4.0405668429400004e-12 -8.0567341434699997e-12  1                  
                  1.1717114655300001e-05              -1.30690254389e-16                 1.0053096491499999e-17               0                                    0                                         8                                       8                                    0                                       8                                     0                                       0                                              0                                                0                                     -1.0053096491500001e-16          -3.0159289474499998e-17         376.99111843100002       0                         0                         376.99111843100002        7                            0                          7                   -4.0405668429400004e-12 -8.0567341434699997e-12  1                  
                  1.08157981434e-05                -1.2063715789799999e-16               1.0053096491499999e-17               0                                    0                                         9                                       9                                    0                                       9                                     0                                       0                                              0                                                0                                     -1.0053096491500001e-16          -2.0106192982999999e-17         251.32741228699999       0                         0                         251.32741228699999        8                            0                          8                   -4.0405668429400004e-12 -8.0567341434699997e-12  1                  
                  9.9144816314200001e-06              -1.10584061406e-16                 1.0053096491499999e-17               0                                    0                                         10                                      10                                   0                                       10                                    0                                       0                                              0                                                0                                     -1.0053096491500001e-16          -1.0053096491499999e-17         125.663706144            0                         0                         125.663706144             9                            0                          9                   -4.0405668429400004e-12 -8.0567341434699997e-12  1                  
                  9.0131651194700005e-06              -1.0053096491500001e-16               1.0053096491499999e-17               0                                    0                                         11                                      11                                   0                                       11                                    0                                       0                                              0                                                0                                     -1.0053096491500001e-16           0                           0                        0                         0                         0                         10                           0                          10                  -4.0405668429400004e-12 -8.0567341434699997e-12  1                  
                  8.1118486075199993e-06              -9.0477868423400006e-17               1.0053096491499999e-17               0                                    0                                         12                                      12                                   0                                       12                                    0                                       0                                              0                                                0                                     -1.0053096491500001e-16           1.0053096491499999e-17         125.663706144            0                         0                        -125.663706144             11                           0                          11                  -4.0405668429400004e-12 -8.0567341434699997e-12  1                  
                  7.2105320955799998e-06              -8.0424771931899994e-17               1.0053096491499999e-17               0                                    0                                         13                                      13                                   0                                       13                                    0                                       0                                              0                                                0                                     -1.0053096491500001e-16           2.0106192982999999e-17         251.32741228699999       0                         0                        -251.32741228699999        12                           0                          12                  -4.0405668429400004e-12 -8.0567341434699997e-12  1                  
                  6.3092155836300002e-06              -7.0371675440399995e-17               1.0053096491499999e-17               0                                    0                                         14                                      14                                   0                                       14                                    0                                       0                                              0                                                0                                     -1.0053096491500001e-16           3.0159289474499998e-17         376.99111843100002       0                         0                        -376.99111843100002        13                           0                          13                  -4.0405668429400004e-12 -8.0567341434699997e-12  1                  
                  5.4078990716799998e-06              -6.0318578948899996e-17               1.0053096491499999e-17               0                                    0                                         15                                      15                                   0                                       15                                    0                                       0                                              0                                                0                                     -1.0053096491500001e-16           4.0212385965900003e-17         502.65482457399997       0                         0                        -502.65482457399997        14                           0                          14                  -4.0405668429400004e-12 -8.0567341434699997e-12  1                  
                  4.5065825597400003e-06              -5.0265482457400002e-17               1.0053096491499999e-17               0                                    0                                         16                                      16                                   0                                       16                                    0                                       0                                              0                                                0                                     -1.0053096491500001e-16           5.0265482457400002e-17         628.31853071800003       0                         0                        -628.31853071800003        15                           0                          15                  -4.0405668429400004e-12 -8.0567341434699997e-12  1                  
                  3.6052660477899999e-06              -4.0212385965900003e-17               1.0053096491499999e-17               0                                    0                                         17                                      17                                   0                                       17                                    0                                       0                                              0                                                0                                     -1.0053096491500001e-16           6.0318578948899996e-17         753.98223686200004       0                         0                        -753.98223686200004        16                           0                          16                  -4.0405668429400004e-12 -8.0567341434699997e-12  1                  
                  2.7039495358399999e-06              -3.0159289474499998e-17               1.0053096491499999e-17               0                                    0                                         18                                      18                                   0                                       18                                    0                                       0                                              0                                                0                                     -1.0053096491500001e-16           7.0371675440399995e-17         879.64594300500005       0                         0                        -879.64594300500005        17                           0                          17                  -4.0405668429400004e-12 -8.0567341434699997e-12  1                  
                  1.8026330238899999e-06              -2.0106192982999999e-17               1.0053096491499999e-17               0                                    0                                         19                                      19                                   0                                       19                                    0                                       0                                              0                                                0                                     -1.0053096491500001e-16           8.0424771931899994e-17         1005.30964915            0                         0                        -1005.30964915             18                           0                          18                  -4.0405668429400004e-12 -8.0567341434699997e-12  1                  
                  9.0131651194700001e-07              -1.0053096491499999e-17               1.0053096491499999e-17               0                                    0                                         20                                      20                                   0                                       20                                    0                                       0                                              0                                                0                                     -1.0053096491500001e-16           9.0477868423400006e-17         1130.97335529            0                         0                        -1130.97335529             19                           0                          19                  -4.0405668429400004e-12 -8.0567341434699997e-12  1                  
                  0                                 0                                 1.0053096491499999e-17               0                                    0                                         21                                      21                                   0                                       21                                    0                                       0                                              0                                                0                                     -1.0053096491500001e-16           1.0053096491500001e-16         1256.63706144            0                         0                        -1256.63706144             20                           0                          20                  -4.0405668429400004e-12 -8.0567341434699997e-12  1                  
                  9.0131651194700001e-07              -1.0053096491499999e-17              -1.0053096491499999e-17               0                                    0                                         22                                      22                                   0                                       22                                    0                                       0                                              0                                                0                                     -1.0053096491500001e-16           9.0477868423400006e-17         1130.97335529            0                         0                        -1130.97335529             21                           0                          21                  -4.0405668429400004e-12 -8.0567341434699997e-12  1                  
                  1.8026330238899999e-06              -2.0106192982999999e-17              -1.0053096491499999e-17               0                                    0                                         23                                      23                                   0                                       23                                    0                                       0                                              0                                                0                                     -1.0053096491500001e-16           8.0424771931899994e-17         1005.30964915            0                         0                        -1005.30964915             22                           0                          22                  -4.0405668429400004e-12 -8.0567341434699997e-12  1                  
                  2.7039495358399999e-06              -3.0159289474499998e-17              -1.0053096491499999e-17               0                                    0                                         24                                      24                                   0                                       24                                    0                                       0                                              0                                                0                                     -1.0053096491500001e-16           7.0371675440399995e-17         879.64594300500005       0                         0                        -879.64594300500005        23                           0                          23                  -4.0405668429400004e-12 -8.0567341434699997e-12  1                  
                  3.6052660477899999e-06              -4.0212385965900003e-17              -1.0053096491499999e-17               0                                    0                                         25                                      25                                   0                                       25                                    0                                       0                                              0                                                0                                     -1.0053096491500001e-16           6.0318578948899996e-17         753.98223686200004       0                         0                        -753.98223686200004        24                           0                          24                  -4.0405668429400004e-12 -8.0567341434699997e-12  1                  
                  4.5065825597400003e-06              -5.0265482457400002e-17              -1.0053096491499999e-17               0                                    0                                         26                                      26                                   0                                       26                                    0                                       0                                              0                                                0                                     -1.0053096491500001e-16           5.0265482457400002e-17         628.31853071800003       0                         0                        -628.31853071800003        25                           0                          25                  -4.0405668429400004e-12 -8.0567341434699997e-12  1                  
                  5.4078990716799998e-06              -6.0318578948899996e-17              -1.0053096491499999e-17               0                                    0                                         27                                      27                                   0                                       27                                    0                                       0                                              0                                                0                                     -1.0053096491500001e-16           4.0212385965900003e-17         502.65482457399997       0                         0                        -502.65482457399997        26                           0                          26                  -4.0405668429400004e-12 -8.0567341434699997e-12  1                  
                  6.3092155836300002e-06              -7.0371675440399995e-17              -1.0053096491499999e-17               0                                    0                                         28                                      28                                   0                                       28                                    0                                       0                                              0                                                0                                     -1.0053096491500001e-16           3.0159289474499998e-17         376.99111843100002       0                         0                        -376.99111843100002        27                           0                          27                  -4.0405668429400004e-12 -8.0567341434699997e-12  1                  
                  7.2105320955799998e-06              -8.0424771931899994e-17              -1.0053096491499999e-17               0                                    0                                         29                                      29                                   0                                       29                                    0                                       0                                              0                                                0                                     -1.0053096491500001e-16           2.0106192982999999e-17         251.32741228699999       0                         0                        -251.32741228699999        28                           0                          28                  -4.0405668429400004e-12 -8.0567341434699997e-12  1                  
                  8.1118486075199993e-06              -9.0477868423400006e-17              -1.0053096491499999e-17               0                                    0                                         30                                      30                                   0                                       30                                    0                                       0                                              0                                                0                                     -1.0053096491500001e-16           1.0053096491499999e-17         125.663706144            0                         0                        -125.663706144             29                           0                          29                  -4.0405668429400004e-12 -8.0567341434699997e-12  1                  
                  9.0131651194700005e-06              -1.0053096491500001e-16              -1.0053096491499999e-17               0                                    0                                         31                                      31                                   0                                       31                                    0                                       0                                              0                                                0                                     -1.0053096491500001e-16           0                           0                        0                         0                         0                         30                           0                          30                  -4.0405668429400004e-12 -8.0567341434699997e-12  1                  
                  9.9144816314200001e-06              -1.10584061406e-16                -1.0053096491499999e-17               0                                    0                                         32                                      32                                   0                                       32                                    0                                       0                                              0                                                0                                     -1.0053096491500001e-16          -1.0053096491499999e-17         125.663706144            0                         0                         125.663706144             31                           0                          31                  -4.0405668429400004e-12 -8.0567341434699997e-12  1                  
                  1.08157981434e-05                -1.2063715789799999e-16              -1.0053096491499999e-17               0                                    0                                         33                                      33                                   0                                       33                                    0                                       0                                              0                                                0                                     -1.0053096491500001e-16          -2.0106192982999999e-17         251.32741228699999       0                         0                         251.32741228699999        32                           0                          32                  -4.0405668429400004e-12 -8.0567341434699997e-12  1                  