# ODT 1.0
# Table Start
# Title: mmArchive Data Table, Mon Nov 06 18:18:43 CET 2023
# Columns: {Oxs_CGEvolve:evolver:Max mxHxm} {Oxs_CGEvolve:evolver:Total energy} {Oxs_CGEvolve:evolver:Delta E} {Oxs_CGEvolve:evolver:Bracket count} {Oxs_CGEvolve:evolver:Line min count} {Oxs_CGEvolve:evolver:Conjugate cycle count} {Oxs_CGEvolve:evolver:Cycle count} {Oxs_CGEvolve:evolver:Cycle sub count} {Oxs_CGEvolve:evolver:Energy calc count} Oxs_UniformExchange:exchange:Energy {Oxs_UniformExchange:exchange:Max Spin Ang} {Oxs_UniformExchange:exchange:Stage Max Spin Ang} {Oxs_UniformExchange:exchange:Run Max Spin Ang} Oxs_FixedZeeman:zeeman:Energy Oxs_MinDriver::Iteration {Oxs_MinDriver::Stage iteration} Oxs_MinDriver::Stage Oxs_MinDriver::mx    Oxs_MinDriver::my    Oxs_MinDriver::mz   
# Units:                 A/m                                 J                                J                                 {}                                   {}                                        {}                                      {}                                   {}                                      {}                                     J                                      deg                                            deg                                              deg                                     J                          {}                           {}                         {}                 {}                   {}                   {}           
                  976107.34781299997               -4.9149580580500002e-17              -4.9149580580500002e-17               0                                    0                                         1                                       1                                    0                                       1                                     0                                       0                                              0                                                0                                     -4.9149580580500002e-17         0                            0                          0                    0.43758484544300003  0.87252796946199995  0.21728885278599999
                  975917.35586799996               -4.9342237708800002e-17              -1.9265712829100001e-19               1                                    0                                         1                                       1                                    0                                       2                                     0                                       0                                              0                                                0                                     -4.9342237708800002e-17         1                            1                          0                    0.43749967284800001  0.87235813846300003  0.21814058429399999
                  923546.27058500005               -8.6742717860800002e-17              -3.7400480152000001e-17               2                                    0                                         1                                       1                                    0                                       3                                     0                                       0                                              0                                                0                                     -8.6742717860800002e-17         2                            2                          0                    0.41402193414299998  0.825544397328       0.383487009022     
                  842923.70726199995               -1.2170022155299999e-16              -3.4957503691999999e-17               3                                    0                                         2                                       2                                    0                                       4                                     0                                       0                                              0                                                0                                     -1.2170022155299999e-16         3                            3                          0                    0.37787917587999997  0.75347707642700001  0.53803310654199998
                  736689.33363400004               -1.5295992559600001e-16              -3.1259704043400001e-17               4                                    0                                         3                                       3                                    0                                       5                                     0                                       0                                              0                                                0                                     -1.5295992559600001e-16         4                            4                          0                    0.33025475007400001  0.65851573583599998  0.67623134037800003
                  608071.02738600003               -1.7957201970200001e-16              -2.6612094105599999e-17               5                                    0                                         4                                       4                                    0                                       6                                     0                                       0                                              0                                                0                                     -1.7957201970200001e-16         5                            5                          0                    0.27259570080399997  0.54354572783699995  0.79388262712699997
                  460976.79067000002               -2.00727908857e-16                -2.11558891548e-17                 6                                    0                                         5                                       5                                    0                                       7                                     0                                       0                                              0                                                0                                     -2.00727908857e-16           6                            6                          0                    0.206653969105       0.41206035794500001  0.88741219197400001
                  308422.18647999997               -2.15167584825e-16                -1.4439675967799999e-17               7                                    0                                         6                                       6                                    0                                       8                                     0                                       0                                              0                                                0                                     -2.15167584825e-16           7                            7                          0                    0.13826437748299999  0.275694046059       0.95124957549900002
                  299876.00743499998               -2.15784782074e-16                -6.1719724966900002e-19               8                                    0                                         6                                       6                                    0                                       9                                     0                                       0                                              0                                                0                                     -2.15784782074e-16           8                            8                          0                    0.13443316112699999  0.26805474258899997  0.95397818641999999
                  161442.677134                    -2.2322746999999999e-16              -7.4426879261599994e-18               9                                    0                                         7                                       7                                    0                                       10                                    0                                       0                                              0                                                0                                     -2.2322746999999999e-16         9                            9                          0                    0.072374077584399996  0.14431122927199999  0.98688209123500004
                  129663.643459                    -2.24285143881e-16                -1.05767388032e-18                 10                                   0                                         7                                       7                                    0                                       11                                    0                                       0                                              0                                                0                                     -2.24285143881e-16           10                           10                         0                    0.058127669573899997  0.115904419523       0.991558036408     
                  35006.850542200002               -2.2605603009400002e-16              -1.7708862135699998e-18               11                                   0                                         8                                       8                                    0                                       12                                    0                                       0                                              0                                                0                                     -2.2605603009400002e-16         11                           11                         0                    0.0156934248249      0.031292107665500002  0.99938707236699997
                  10.230931181900001               -2.2619467104699999e-16              -1.38640952396e-19                 12                                   1                                         8                                       8                                    0                                       14                                    0                                       0                                              0                                                0                                     -2.2619467104699999e-16         12                           12                         0                    4.5864836997799999e-06  9.1452785698999996e-06  0.99999999994800004
                  9.3047403416100007e-06              -2.2619467105800001e-16              -1.1838090478e-26                  12                                   3                                         8                                       8                                    0                                       16                                    0                                       0                                              0                                                0                                     -2.2619467105800001e-16         13                           13                         0                   -4.17127432797e-12   -8.3173711775799994e-12  1                  
# Table End
