# OOMMF OVF 2.0
#
# Segment count: 1
#
# Begin: Segment
# Begin: Header
#
# Title: Oxs_TimeDriver::Magnetization
# Desc: Oxs vector field output
# Desc:  MIF source file: /home/begm/gito/joommf/micromagneticdata/micromagneticdata/tests/test_sample/drive-1/test_sample.mif
# Desc:  Iteration: 32, State id: 173
# Desc:  Stage: 13, Stage iteration: 1
# Desc:  Stage simulation time: 1e-12 s
# Desc:  Total simulation time: 1.4e-11 s
# meshunit: m
# meshtype: rectangular
# xbase: 5.0000000000000001e-09
# ybase: 7.4999999999999993e-09
# zbase: 2.5000000000000001e-09
# xnodes: 3
# ynodes: 2
# znodes: 6
# xstepsize: 1e-08
# ystepsize: 1.4999999999999999e-08
# zstepsize: 5.0000000000000001e-09
# xmin: 0
# ymin: 0
# zmin: 0
# xmax: 3.0000000000000004e-08
# ymax: 2.9999999999999997e-08
# zmax: 3.0000000000000004e-08
# valuedim: 3
# valuelabels: Magnetization_x Magnetization_y Magnetization_z
# valueunits: A/m A/m A/m
#
# End: Header
#
# Begin: Data Text
 151980.886701726 -749624.788083866 234445.062152256
 151980.886701726 -749624.788083866 234445.062152256
 151980.886701726 -749624.788083866 234445.062152256
 151980.886701726 -749624.788083866 234445.062152256
 151980.886701726 -749624.788083866 234445.062152256
 151980.886701726 -749624.788083866 234445.062152256
 151980.886701726 -749624.788083866 234445.062152256
 151980.886701726 -749624.788083866 234445.062152256
 151980.886701726 -749624.788083866 234445.062152256
 151980.886701726 -749624.788083866 234445.062152256
 151980.886701726 -749624.788083866 234445.062152256
 151980.886701726 -749624.788083866 234445.062152256
 151980.886701726 -749624.788083866 234445.062152256
 151980.886701726 -749624.788083866 234445.062152256
 151980.886701726 -749624.788083866 234445.062152256
 151980.886701726 -749624.788083866 234445.062152256
 151980.886701726 -749624.788083866 234445.062152256
 151980.886701726 -749624.788083866 234445.062152256
 151980.886701726 -749624.788083866 234445.062152256
 151980.886701726 -749624.788083866 234445.062152256
 151980.886701726 -749624.788083866 234445.062152256
 151980.886701726 -749624.788083866 234445.062152256
 151980.886701726 -749624.788083866 234445.062152256
 151980.886701726 -749624.788083866 234445.062152256
 151980.886701726 -749624.788083866 234445.062152256
 151980.886701726 -749624.788083866 234445.062152256
 151980.886701726 -749624.788083866 234445.062152256
 151980.886701726 -749624.788083866 234445.062152256
 151980.886701726 -749624.788083866 234445.062152256
 151980.886701726 -749624.788083866 234445.062152256
 151980.886701726 -749624.788083866 234445.062152256
 151980.886701726 -749624.788083866 234445.062152256
 151980.886701726 -749624.788083866 234445.062152256
 151980.886701726 -749624.788083866 234445.062152256
 151980.886701726 -749624.788083866 234445.062152256
 151980.886701726 -749624.788083866 234445.062152256
# End: Data Text
# End: Segment
