# ODT 1.0
# Table Start
# Title: mmArchive Data Table, Sun Jun 14 22:40:48 BST 2020
# Columns: {Oxs_RungeKuttaEvolve:evolver:Total energy} {Oxs_RungeKuttaEvolve:evolver:Energy calc count} {Oxs_RungeKuttaEvolve:evolver:Max dm/dt} Oxs_RungeKuttaEvolve:evolver:dE/dt {Oxs_RungeKuttaEvolve:evolver:Delta E} Oxs_UniformExchange::Energy {Oxs_UniformExchange::Max Spin Ang} {Oxs_UniformExchange::Stage Max Spin Ang} {Oxs_UniformExchange::Run Max Spin Ang} Oxs_FixedZeeman::Energy Oxs_TimeDriver::Iteration {Oxs_TimeDriver::Stage iteration} Oxs_TimeDriver::Stage Oxs_TimeDriver::mx   Oxs_TimeDriver::my   Oxs_TimeDriver::mz   {Oxs_TimeDriver::Last time step} {Oxs_TimeDriver::Simulation time}
# Units:                        J                                             {}                                         deg/ns                                 J/s                                   J                                 J                              deg                                    deg                                      deg                              J                       {}                            {}                          {}                   {}                   {}                   {}                          s                                 s                
                      -1.9273826938099999e-17                            37                                           12696.193550100001                   -4.4616659070500002e-07                 -3.3262908718300001e-19              0                               0                                      0                                        0                              -1.9273826938099999e-17      6                             6                           0                     0.192938965228       0.98119184015500005 -0.0060933169200699999        7.4505859187300002e-13              9.9999999999999998e-13       
                      -1.9719611825000001e-17                            44                                           12685.305736099999                   -4.4540168492500003e-07                 -4.4578488684900004e-19              0                               0                                      0                                        0                              -1.9719611825000001e-17      8                             1                           1                     0.153976414275       0.96530630743800006  0.21089095918799999        9.9999999999999998e-13              2e-12                     
                      -2.0164623724099999e-17                            51                                           12674.1788521                        -4.4462066167599998e-07                 -4.4501189909499996e-19              0                               0                                      0                                        0                              -2.0164623724099999e-17      10                            1                           2                     0.11683532838000001  0.900563790852       0.41872946474799999        9.9999999999999998e-13              3.0000000000000001e-12       
                      -2.0608846577799999e-17                            58                                           12662.8139789                        -4.43823640905e-07                   -4.4422285370700002e-19              0                               0                                      0                                        0                              -2.0608846577799999e-17      12                            1                           3                     0.083610353395699999  0.79033108599099999  0.60694817185700001        9.9999999999999998e-13              3.9999999999999999e-12       
                      -2.10522644495e-17                              65                                           12651.2122182                        -4.4301074468e-07                    -4.4341787169700003e-19              0                               0                                      0                                        0                              -2.10522644495e-17        14                            1                           4                     0.056193420736300001  0.64027616974400003  0.76608663082200001        9.9999999999999998e-13              4.9999999999999997e-12       
                      -2.1494861525600001e-17                            72                                           12639.3746921                        -4.4218209716000001e-07                 -4.42597076184e-19                0                               0                                      0                                        0                              -2.1494861525600001e-17      16                            1                           5                     0.0361780777333      0.45807638443299997  0.88817631848400003        9.9999999999999998e-13              6.0000000000000003e-12       
                      -2.1936622118000001e-17                            79                                           12627.302543                         -4.41337824545e-07                   -4.4176059234999998e-19              0                               0                                      0                                        0                              -2.1936622118000001e-17      18                            1                           6                     0.024779148166900002  0.25302509039400001  0.96714233567100005        9.9999999999999998e-13              7.0000000000000001e-12       
                      -2.2377530665399999e-17                            86                                           12614.996933099999                   -4.4047805504500002e-07                 -4.4090854740699996e-19              0                               0                                      0                                        0                              -2.2377530665399999e-17      20                            1                           7                     0.0227717784513      0.035556968744299998  0.99910817636500004        9.9999999999999998e-13              7.9999999999999998e-12       
                      -2.2817571736e-17                               93                                           12602.4590446                        -4.3960291883699999e-07                 -4.4004107055100005e-19              0                               0                                      0                                        0                              -2.2817571736e-17         22                            1                           8                     0.030452931229199998 -0.18328374346599999  0.98258825983300002        9.9999999999999998e-13              8.9999999999999996e-12       
                      -2.3256730028900001e-17                            100                                          12589.690078899999                   -4.3871254802099998e-07                 -4.3915829292600002e-19              0                               0                                      0                                        0                              -2.3256730028900001e-17      24                            1                           9                     0.047627240425800001 -0.39240494704899997  0.91855865544899995        9.9999999999999998e-13              9.9999999999999994e-12       
                      -2.36949903765e-17                              107                                          12576.6912567                        -4.3780707658499998e-07                 -4.3826034757999997e-19              0                               0                                      0                                        0                              -2.36949903765e-17        26                            1                           10                    0.073617898900400006 -0.58122969529000001  0.81040264453800004        9.9999999999999998e-13              1.1000000000000001e-11       
                      -2.4132337745900001e-17                            114                                          12563.4638175                        -4.3688664035700001e-07                 -4.3734736942700004e-19              0                               0                                      0                                        0                              -2.4132337745900001e-17      28                            1                           11                    0.107301975217      -0.74023191096800001  0.66373413660799996        9.9999999999999998e-13              1.2000000000000001e-11       
                      -2.4568757241100001e-17                            121                                          12550.009019499999                   -4.35951376968e-07                   -4.36419495199e-19                0                               0                                      0                                        0                              -2.4568757241100001e-17      30                            1                           12                    0.14716831473       -0.86141763391000004  0.48610816402200002        9.9999999999999998e-13              1.3e-11                   
                      -2.5004234104500001e-17                            128                                          12536.3281391                        -4.3500142580800003e-07                 -4.3547686341299998e-19              0                               0                                      0                                        0                              -2.5004234104500001e-17      32                            1                           13                    0.19139503530300001 -0.93872745377800004  0.28663340347100003        9.9999999999999998e-13              1.4e-11                   
                      -2.5438753718799999e-17                            135                                          12522.422471                         -4.3403692797999998e-07                 -4.3451961432000002e-19              0                               0                                      0                                        0                              -2.5438753718799999e-17      34                            1                           14                    0.23794263770400001 -0.96833984265700002  0.075506624118800006        9.9999999999999998e-13              1.5e-11                   
# Table End
