# ODT 1.0
# Table Start
# Title: mmArchive Data Table, Tue Oct 23 15:57:38 CEST 2018
# Columns: {Oxs_RungeKuttaEvolve:evolver:Total energy} {Oxs_RungeKuttaEvolve:evolver:Energy calc count} {Oxs_RungeKuttaEvolve:evolver:Max dm/dt} Oxs_RungeKuttaEvolve:evolver:dE/dt {Oxs_RungeKuttaEvolve:evolver:Delta E} Oxs_UniformExchange::Energy {Oxs_UniformExchange::Max Spin Ang} {Oxs_UniformExchange::Stage Max Spin Ang} {Oxs_UniformExchange::Run Max Spin Ang} Oxs_FixedZeeman::Energy Oxs_TimeDriver::Iteration {Oxs_TimeDriver::Stage iteration} Oxs_TimeDriver::Stage Oxs_TimeDriver::mx   Oxs_TimeDriver::my   Oxs_TimeDriver::mz   {Oxs_TimeDriver::Last time step} {Oxs_TimeDriver::Simulation time}
# Units:                        J                                             {}                                         deg/ns                                 J/s                                   J                                 J                              deg                                    deg                                      deg                              J                       {}                            {}                          {}                   {}                   {}                   {}                          s                                 s                
                      -6.9232515001490583e-18                            37                                           12505.877810863349                   -1.1697362950748702e-07                 -2.8210838574626049e-20              0                               0                                      0                                        0                              -6.9232515001490583e-18      6                             6                           0                     0.25990587032171902 -0.96533023663923867 -0.024217200547133836        2.4110717274233608e-13              4.9999999999999989e-13       
                      -6.9817052612008062e-18                            44                                           12498.800265337111                   -1.1684126743985836e-07                 -5.8453761051747679e-20              0                               0                                      0                                        0                              -6.9817052612008062e-18      8                             1                           1                     0.28315310916007447 -0.95026623164235091 -0.12968579634342725        4.9999999999999999e-13              9.9999999999999978e-13       
                      -7.0400926008512443e-18                            51                                           12491.667304420962                   -1.167079448229286e-07                 -5.8387339650437238e-20              0                               0                                      0                                        0                              -7.0400926008512443e-18      10                            1                           2                     0.30591944914298319 -0.92316579226286177 -0.23276213315686839        4.9999999999999999e-13              1.4999999999999997e-12       
                      -7.0984130400488848e-18                            58                                           12484.479095344363                   -1.1657366655352994e-07                 -5.8320439197641968e-20              0                               0                                      0                                        0                              -7.0984130400488848e-18      12                            1                           3                     0.32794268229731466 -0.88438666125919929 -0.3321352593664938         4.9999999999999999e-13              1.9999999999999996e-12       
                      -7.1566661021972595e-18                            65                                           12477.235806397101                   -1.1643843755481769e-07                 -5.8253062148374441e-20              0                               0                                      0                                        0                              -7.1566661021972595e-18      14                            1                           4                     0.34897031115475391 -0.83443452868804324 -0.4265427754231893         4.9999999999999999e-13              2.4999999999999994e-12       
                      -7.2148513131679811e-18                            72                                           12469.937606920077                   -1.1630226277590195e-07                 -5.8185210970720622e-20              0                               0                                      0                                        0                              -7.2148513131679811e-18      16                            1                           5                     0.36876274726048114 -0.77395643262881397 -0.51478682639067408        4.9999999999999999e-13              2.9999999999999993e-12       
                      -7.2729682013136237e-18                            79                                           12462.584667296016                   -1.1616514719147889e-07                 -5.8116888145642641e-20              0                               0                                      0                                        0                              -7.2729682013136237e-18      18                            1                           6                     0.38709634174161001 -0.70373236932302052 -0.5957492547853247         4.9999999999999999e-13              3.4999999999999992e-12       
                      -7.3310162974804308e-18                            86                                           12455.177158940178                   -1.1602709580146048e-07                 -5.8048096166805942e-20              0                               0                                      0                                        0                              -7.3310162974804292e-18      20                            1                           7                     0.40376620954793413 -0.62466522163659799 -0.66840572177756907        4.9999999999999999e-13              3.9999999999999991e-12       
                      -7.3889951350208415e-18                            93                                           12447.715254291008                   -1.158881136306038e-07                 -5.79788375404111e-20              0                               0                                      0                                        0                              -7.3889951350208415e-18      22                            1                           8                     0.41858881165154366 -0.53776913605126997 -0.73183861818765672        4.9999999999999999e-13              4.499999999999999e-12       
                      -7.446904249805786e-18                            100                                          12440.199126800748                   -1.1574820572813917e-07                 -5.7909114784947075e-20              0                               0                                      0                                        0                              -7.4469042498057876e-18      24                            1                           9                     0.43140426261807335 -0.44415649800335866 -0.78524860233963401        4.9999999999999999e-13              4.9999999999999989e-12       
# Table End
