# ODT 1.0
# Table Start
# Title: mmArchive Data Table, Sun Jun 14 22:40:52 BST 2020
# Columns: {Oxs_CGEvolve:evolver:Max mxHxm} {Oxs_CGEvolve:evolver:Total energy} {Oxs_CGEvolve:evolver:Delta E} {Oxs_CGEvolve:evolver:Bracket count} {Oxs_CGEvolve:evolver:Line min count} {Oxs_CGEvolve:evolver:Conjugate cycle count} {Oxs_CGEvolve:evolver:Cycle count} {Oxs_CGEvolve:evolver:Cycle sub count} {Oxs_CGEvolve:evolver:Energy calc count} Oxs_UniformExchange::Energy {Oxs_UniformExchange::Max Spin Ang} {Oxs_UniformExchange::Stage Max Spin Ang} {Oxs_UniformExchange::Run Max Spin Ang} Oxs_FixedZeeman::Energy Oxs_MinDriver::Iteration {Oxs_MinDriver::Stage iteration} Oxs_MinDriver::Stage Oxs_MinDriver::mx    Oxs_MinDriver::my    Oxs_MinDriver::mz   
# Units:                 A/m                                 J                                J                                 {}                                   {}                                        {}                                      {}                                   {}                                      {}                                 J                              deg                                    deg                                      deg                              J                       {}                           {}                         {}                 {}                   {}                   {}           
                  1.7202125920400001e-05              -1.02521870364e-16                -1.6712449685400001e-26               12                                   3                                         8                                       8                                    0                                       16                                0                               0                                      0                                        0                              -1.02521870364e-16        13                           13                         0                    0.980580675688       7.6576534436499996e-12  0.196116135153     
# Table End
