# ODT 1.0
# Table Start
# Title: mmArchive Data Table, Tue Nov 07 09:47:24 CET 2023
# Columns: {Oxs_RungeKuttaEvolve:evolver:Total energy} {Oxs_RungeKuttaEvolve:evolver:Energy calc count} {Oxs_RungeKuttaEvolve:evolver:Max dm/dt} Oxs_RungeKuttaEvolve:evolver:dE/dt {Oxs_RungeKuttaEvolve:evolver:Delta E} Oxs_UniformExchange:exchange:Energy {Oxs_UniformExchange:exchange:Max Spin Ang} {Oxs_UniformExchange:exchange:Stage Max Spin Ang} {Oxs_UniformExchange:exchange:Run Max Spin Ang} Oxs_FixedZeeman:zeeman:Energy Oxs_TimeDriver::Iteration {Oxs_TimeDriver::Stage iteration} Oxs_TimeDriver::Stage Oxs_TimeDriver::mx   Oxs_TimeDriver::my   Oxs_TimeDriver::mz   {Oxs_TimeDriver::Last time step} {Oxs_TimeDriver::Simulation time}
# Units:                        J                                             {}                                         deg/ns                                 J/s                                   J                                     J                                      deg                                            deg                                              deg                                     J                          {}                            {}                          {}                   {}                   {}                   {}                          s                                 s                
                      -7.9271578510900004e-18                            37                                           12887.982100499999                   -4.5974797639099998e-07                 -3.44314260926e-19                    0                                       0                                              0                                                0                                     -7.9271578510900004e-18         6                             6                           0                    -0.0344806192503      0.82322471877400005  0.56666758271100004        7.48726921272e-13                9.9999999999999998e-13       
                      -8.3867421390299997e-18                            44                                           12883.3569372                        -4.59418052296e-07                   -4.5958428794299999e-19                  0                                       0                                              0                                                0                                     -8.3867421390299997e-18         8                             1                           1                    -0.063348506897000001  0.67633521415599995  0.73386486819200003        9.9999999999999998e-13              2e-12                     
                      -8.8459873219299992e-18                            51                                           12878.4730788                        -4.59069803402e-07                   -4.5924518289899999e-19                  0                                       0                                              0                                                0                                     -8.8459873219299992e-18         10                            1                           2                    -0.084921162074499998  0.49528640526899997  0.86456912562699995        9.9999999999999998e-13              3.0000000000000001e-12       
                      -9.3048751028100003e-18                            58                                           12873.331018299999                   -4.5870328580999998e-07                 -4.5888778088099997e-19                  0                                       0                                              0                                                0                                     -9.3048751028100003e-18         12                            1                           3                    -0.09788770074        0.28928446246099998  0.95222502478299997        9.9999999999999998e-13              3.9999999999999999e-12       
                      -9.7633872422400004e-18                            65                                           12867.9312739                        -4.5831855849500002e-07                 -4.5851213942800004e-19                  0                                       0                                              0                                                0                                     -9.7633872422400004e-18         14                            1                           4                    -0.101375153821       0.068794643638699998  0.99246681314499996        9.9999999999999998e-13              4.9999999999999997e-12       
                      -1.02215055612e-17                              72                                           12862.2743894                        -4.5791568328299998e-07                 -4.5811831894400002e-19                  0                                       0                                              0                                                0                                     -1.02215055612e-17           16                            1                           5                    -0.094992459116299999 -0.15499118860899999  0.98333827555200004        9.9999999999999998e-13              6.0000000000000003e-12       
                      -1.0679211943899999e-17                            79                                           12856.3609339                        -4.5749472483499998e-07                 -4.5770638267600001e-19                  0                                       0                                              0                                                0                                     -1.0679211943899999e-17         18                            1                           6                    -0.078849924524399997 -0.37072354099600002  0.92539005049400003        9.9999999999999998e-13              7.0000000000000001e-12       
                      -1.1136488340599999e-17                            86                                           12850.191501699999                   -4.5705575062199999e-07                 -4.5727639669199995e-19                  0                                       0                                              0                                                0                                     -1.1136488340599999e-17         20                            1                           7                    -0.0535531933768     -0.56747178382499996  0.82164945691000002        9.9999999999999998e-13              7.9999999999999998e-12       
                      -1.15933167704e-17                              93                                           12843.766712099999                   -4.5659883090199998e-07                 -4.5682842986000003e-19                  0                                       0                                              0                                                0                                     -1.15933167704e-17           22                            1                           8                    -0.020172041387399999 -0.735278837134       0.67746447907499996        9.9999999999999998e-13              8.9999999999999996e-12       
                      -1.2049679324200001e-17                            100                                          12837.0872093                        -4.5612403870000001e-07                 -4.5636255382499996e-19                  0                                       0                                              0                                                0                                     -1.2049679324200001e-17         24                            1                           9                     0.019814384442999999 -0.86566585702900001  0.50022996126099994        9.9999999999999998e-13              9.9999999999999994e-12       
                      -1.2505558167200001e-17                            107                                          12830.153662000001                   -4.5563144977700002e-07                 -4.5587884298100005e-19                  0                                       0                                              0                                                0                                     -1.2505558167200001e-17         26                            1                           10                    0.064593077054299994 -0.95206130230899999  0.29901005174              9.9999999999999998e-13              1.1000000000000001e-11       
                      -1.29609355417e-17                              114                                          12822.9667639                        -4.5512114260899999e-07                 -4.5537737445200001e-19                  0                                       0                                              0                                                0                                     -1.29609355417e-17           28                            1                           11                    0.112109569391      -0.99013263586699995  0.084076202593799998        9.9999999999999998e-13              1.2000000000000001e-11       
                      -1.34157937697e-17                              121                                          12815.527232599999                   -4.5459319836000002e-07                 -4.5485822805999996e-19                  0                                       0                                              0                                                0                                     -1.34157937697e-17           30                            1                           12                    0.16017250638700001 -0.97800389343000005 -0.13361569007400001        9.9999999999999998e-13              1.3e-11                   
                      -1.3870115256e-17                               128                                          12807.8358102                        -4.5404770085399999e-07                 -4.5432148630299998e-19                  0                                       0                                              0                                                0                                     -1.3870115256e-17            32                            1                           13                    0.206565057508      -0.91634817918099998 -0.34298234871200001        9.9999999999999998e-13              1.4e-11                   
                      -1.4323882490399999e-17                            135                                          12799.8932628                        -4.5348473654899999e-07                 -4.53767234325e-19                    0                                       0                                              0                                                0                                     -1.4323882490399999e-17         34                            1                           14                    0.24915749626100001 -0.80835052555099995 -0.53337601173899996        9.9999999999999998e-13              1.5e-11                   
                      -1.4777078050199998e-17                            142                                          12791.700380300001                   -4.52904394504e-07                   -4.5319555988700001e-19                  0                                       0                                              0                                                0                                     -1.4777078050199998e-17         36                            1                           15                    0.28601522023800002 -0.65954315743299996 -0.69512453364500004        9.9999999999999998e-13              1.6e-11                   
                      -1.52296846036e-17                              149                                          12783.257976299999                   -4.52306766353e-07                   -4.5260655334099996e-19                  0                                       0                                              0                                                0                                     -1.52296846036e-17           38                            1                           16                    0.31549672414500002 -0.47752169232399999 -0.82002124997699999        9.9999999999999998e-13              1.6999999999999999e-11       
                      -1.56816849112e-17                              156                                          12774.566887700001                   -4.51691946273e-07                   -4.5200030759500004e-19                  0                                       0                                              0                                                0                                     -1.56816849112e-17           40                            1                           17                    0.33633655632100001 -0.27155685664000001 -0.90173975984900001        9.9999999999999998e-13              1.7999999999999999e-11       
                      -1.61330618293e-17                              163                                          12765.6279749                        -4.5106003095500002e-07                 -4.5137691808700004e-19                  0                                       0                                              0                                                0                                     -1.61330618293e-17           42                            1                           18                    0.34770905981599998 -0.052121597127100003 -0.93615263116400005        9.9999999999999998e-13              1.8999999999999999e-11       
                      -1.6583798312000001e-17                            170                                          12756.442121300001                   -4.50411119569e-07                   -4.5073648275100003e-19                  0                                       0                                              0                                                0                                     -1.6583798312000001e-17         44                            1                           19                    0.34926968241200002  0.16964225449299999 -0.92153795062300004        9.9999999999999998e-13              1.9999999999999999e-11       
                      -1.7033877414e-17                               177                                          12747.0102331                        -4.4974531373299998e-07                 -4.5007910198500004e-19                  0                                       0                                              0                                                0                                     -1.7033877414e-17            46                            1                           20                    0.34117178583399999  0.38249056219200001 -0.85866336965300005        9.9999999999999998e-13              2.0999999999999999e-11       
                      -1.74832822926e-17                              184                                          12737.3332391                        -4.4906271748e-07                    -4.4940487861800001e-19                  0                                       0                                              0                                                0                                     -1.74832822926e-17           48                            1                           21                    0.32405813400200001  0.57564785644700001 -0.75074354553              9.9999999999999998e-13              2.2000000000000002e-11       
                      -1.79319962105e-17                              191                                          12727.4120905                        -4.4836343722199998e-07                 -4.4871391787699996e-19                  0                                       0                                              0                                                0                                     -1.79319962105e-17           50                            1                           22                    0.29902752980000002  0.73935365801099995 -0.60327332512499998        9.9999999999999998e-13              2.3000000000000001e-11       
                      -1.8380002537900001e-17                            198                                          12717.2477609                        -4.4764758171899997e-07                 -4.4800632735199996e-19                  0                                       0                                              0                                                0                                     -1.8380002537900001e-17         52                            1                           23                    0.26757833369299999  0.86535641442199995 -0.42374533785899998        9.9999999999999998e-13              2.4000000000000001e-11       
                      -1.8827284754799999e-17                            205                                          12706.841245600001                   -4.4691526203899999e-07                 -4.47282216961e-19                    0                                       0                                              0                                                0                                     -1.8827284754799999e-17         54                            1                           24                    0.23153177116000001  0.94733001663899996 -0.22126653275800001        9.9999999999999998e-13              2.5000000000000001e-11       
# Table End
