# ODT 1.0
# Table Start
# Title: mmArchive Data Table, Mon Nov 06 18:18:41 CET 2023
# Columns: {Oxs_RungeKuttaEvolve:evolver:Total energy} {Oxs_RungeKuttaEvolve:evolver:Energy calc count} {Oxs_RungeKuttaEvolve:evolver:Max dm/dt} Oxs_RungeKuttaEvolve:evolver:dE/dt {Oxs_RungeKuttaEvolve:evolver:Delta E} Oxs_UniformExchange:exchange:Energy {Oxs_UniformExchange:exchange:Max Spin Ang} {Oxs_UniformExchange:exchange:Stage Max Spin Ang} {Oxs_UniformExchange:exchange:Run Max Spin Ang} Oxs_FixedZeeman:zeeman:Energy Oxs_TimeDriver::Iteration {Oxs_TimeDriver::Stage iteration} Oxs_TimeDriver::Stage Oxs_TimeDriver::mx   Oxs_TimeDriver::my   Oxs_TimeDriver::mz   {Oxs_TimeDriver::Last time step} {Oxs_TimeDriver::Simulation time}
# Units:                        J                                             {}                                         deg/ns                                 J/s                                   J                                     J                                      deg                                            deg                                              deg                                     J                          {}                            {}                          {}                   {}                   {}                   {}                          s                                 s                
                      -1.7836105165000001e-17                            37                                           12887.982100499999                   -1.03443294688e-06                   -7.7470708708400003e-19                  0                                       0                                              0                                                0                                     -1.7836105165000001e-17         6                             6                           0                    -0.0344806192503      0.82322471877400005  0.56666758271100004        7.48726921272e-13                9.9999999999999998e-13       
                      -1.88701698128e-17                              44                                           12883.3569372                        -1.03369061767e-06                   -1.0340646478700001e-18                  0                                       0                                              0                                                0                                     -1.88701698128e-17           8                             1                           1                    -0.063348506897000001  0.67633521415599995  0.73386486819200003        9.9999999999999998e-13              2e-12                     
                      -1.9903471474299999e-17                            51                                           12878.4730788                        -1.0329070576499999e-06                 -1.03330166152e-18                    0                                       0                                              0                                                0                                     -1.9903471474299999e-17         10                            1                           2                    -0.084921162074499998  0.49528640526899997  0.86456912562699995        9.9999999999999998e-13              3.0000000000000001e-12       
                      -2.0935968981300001e-17                            58                                           12873.331018299999                   -1.0320823930700001e-06                 -1.0324975069799999e-18                  0                                       0                                              0                                                0                                     -2.0935968981300001e-17         12                            1                           3                    -0.09788770074        0.28928446246099998  0.95222502478299997        9.9999999999999998e-13              3.9999999999999999e-12       
                      -2.1967621295e-17                               65                                           12867.9312739                        -1.0312167566100001e-06                 -1.0316523137099999e-18                  0                                       0                                              0                                                0                                     -2.1967621295e-17            14                            1                           4                    -0.101375153821       0.068794643638699998  0.99246681314499996        9.9999999999999998e-13              4.9999999999999997e-12       
                      -2.29983875127e-17                              72                                           12862.2743894                        -1.0303102873900001e-06                 -1.0307662176199999e-18                  0                                       0                                              0                                                0                                     -2.29983875127e-17           16                            1                           5                    -0.094992459116299999 -0.15499118860899999  0.98333827555200004        9.9999999999999998e-13              6.0000000000000003e-12       
                      -2.4028226873700001e-17                            79                                           12856.3609339                        -1.02936313088e-06                   -1.02983936102e-18                    0                                       0                                              0                                                0                                     -2.4028226873700001e-17         18                            1                           6                    -0.078849924524399997 -0.37072354099600002  0.92539005049400003        9.9999999999999998e-13              7.0000000000000001e-12       
                      -2.5057098766200001e-17                            86                                           12850.191501699999                   -1.0283754389000001e-06                 -1.0288718925600001e-18                  0                                       0                                              0                                                0                                     -2.5057098766200001e-17         20                            1                           7                    -0.0535531933768     -0.56747178382499996  0.82164945691000002        9.9999999999999998e-13              7.9999999999999998e-12       
                      -2.6084962733399999e-17                            93                                           12843.766712099999                   -1.02734736953e-06                   -1.02786396719e-18                    0                                       0                                              0                                                0                                     -2.6084962733399999e-17         22                            1                           8                    -0.020172041387399999 -0.735278837134       0.67746447907499996        9.9999999999999998e-13              8.9999999999999996e-12       
                      -2.7111778479500001e-17                            100                                          12837.0872093                        -1.0262790870699999e-06                 -1.02681574611e-18                    0                                       0                                              0                                                0                                     -2.7111778479500001e-17         24                            1                           9                     0.019814384442999999 -0.86566585702900001  0.50022996126099994        9.9999999999999998e-13              9.9999999999999994e-12       
                      -2.8137505876200003e-17                            107                                          12830.153662000001                   -1.025170762e-06                     -1.02572739671e-18                    0                                       0                                              0                                                0                                     -2.8137505876200003e-17         26                            1                           10                    0.064593077054299994 -0.95206130230899999  0.29901005174              9.9999999999999998e-13              1.1000000000000001e-11       
                      -2.9162104968800002e-17                            114                                          12822.9667639                        -1.02402257087e-06                   -1.02459909252e-18                    0                                       0                                              0                                                0                                     -2.9162104968800002e-17         28                            1                           11                    0.112109569391      -0.99013263586699995  0.084076202593799998        9.9999999999999998e-13              1.2000000000000001e-11       
                      -3.01855359819e-17                              121                                          12815.527232599999                   -1.0228346963099999e-06                 -1.02343101313e-18                    0                                       0                                              0                                                0                                     -3.01855359819e-17           30                            1                           12                    0.16017250638700001 -0.97800389343000005 -0.13361569007400001        9.9999999999999998e-13              1.3e-11                   
                      -3.12077593261e-17                              128                                          12807.8358102                        -1.02160732692e-06                   -1.02222334418e-18                    0                                       0                                              0                                                0                                     -3.12077593261e-17           32                            1                           13                    0.206565057508      -0.91634817918099998 -0.34298234871200001        9.9999999999999998e-13              1.4e-11                   
                      -3.2228735603299997e-17                            135                                          12799.8932628                        -1.02034065724e-06                   -1.0209762772299999e-18                  0                                       0                                              0                                                0                                     -3.2228735603299997e-17         34                            1                           14                    0.24915749626100001 -0.80835052555099995 -0.53337601173899996        9.9999999999999998e-13              1.5e-11                   
                      -3.32484256131e-17                              142                                          12791.700380300001                   -1.01903488763e-06                   -1.01969000975e-18                    0                                       0                                              0                                                0                                     -3.32484256131e-17           36                            1                           15                    0.28601522023800002 -0.65954315743299996 -0.69512453364500004        9.9999999999999998e-13              1.6e-11                   
                      -3.4266790358099999e-17                            149                                          12783.257976299999                   -1.0176902242900001e-06                 -1.01836474502e-18                    0                                       0                                              0                                                0                                     -3.4266790358099999e-17         38                            1                           16                    0.31549672414500002 -0.47752169232399999 -0.82002124997699999        9.9999999999999998e-13              1.6999999999999999e-11       
                      -3.5283791050200002e-17                            156                                          12774.566887700001                   -1.0163068791099999e-06                 -1.0170006920900001e-18                  0                                       0                                              0                                                0                                     -3.5283791050200002e-17         40                            1                           17                    0.33633655632100001 -0.27155685664000001 -0.90173975984900001        9.9999999999999998e-13              1.7999999999999999e-11       
                      -3.6299389115900002e-17                            163                                          12765.6279749                        -1.0148850696499999e-06                 -1.0155980656999999e-18                  0                                       0                                              0                                                0                                     -3.6299389115900002e-17         42                            1                           18                    0.34770905981599998 -0.052121597127100003 -0.93615263116400005        9.9999999999999998e-13              1.8999999999999999e-11       
                      -3.7313546202000001e-17                            170                                          12756.442121300001                   -1.0134250190299999e-06                 -1.0141570861899999e-18                  0                                       0                                              0                                                0                                     -3.7313546202000001e-17         44                            1                           19                    0.34926968241200002  0.16964225449299999 -0.92153795062300004        9.9999999999999998e-13              1.9999999999999999e-11       
                      -3.8326224181500001e-17                            177                                          12747.0102331                        -1.0119269559000001e-06                 -1.0126779794700001e-18                  0                                       0                                              0                                                0                                     -3.8326224181500001e-17         46                            1                           20                    0.34117178583399999  0.38249056219200001 -0.85866336965300005        9.9999999999999998e-13              2.0999999999999999e-11       
                      -3.9337385158400001e-17                            184                                          12737.3332391                        -1.0103911143300001e-06                 -1.0111609768899999e-18                  0                                       0                                              0                                                0                                     -3.9337385158400001e-17         48                            1                           21                    0.32405813400200001  0.57564785644700001 -0.75074354553              9.9999999999999998e-13              2.2000000000000002e-11       
                      -4.0346991473600002e-17                            191                                          12727.4120905                        -1.0088177337500001e-06                 -1.00960631522e-18                    0                                       0                                              0                                                0                                     -4.0346991473600002e-17         50                            1                           22                    0.29902752980000002  0.73935365801099995 -0.60327332512499998        9.9999999999999998e-13              2.3000000000000001e-11       
                      -4.1355005710199999e-17                            198                                          12717.2477609                        -1.0072070588700001e-06                 -1.0080142365400001e-18                  0                                       0                                              0                                                0                                     -4.1355005710199999e-17         52                            1                           23                    0.26757833369299999  0.86535641442199995 -0.42374533785899998        9.9999999999999998e-13              2.4000000000000001e-11       
                      -4.2361390698300002e-17                            205                                          12706.841245600001                   -1.0055593395899999e-06                 -1.0063849881600001e-18                  0                                       0                                              0                                                0                                     -4.2361390698300002e-17         54                            1                           24                    0.23153177116000001  0.94733001663899996 -0.22126653275800001        9.9999999999999998e-13              2.5000000000000001e-11       
# Table End
