# ODT 1.0
# Table Start
# Title: mmArchive Data Table, Mon Nov 06 18:18:43 CET 2023
# Columns: {Oxs_RungeKuttaEvolve:evolver:Total energy} {Oxs_RungeKuttaEvolve:evolver:Energy calc count} {Oxs_RungeKuttaEvolve:evolver:Max dm/dt} Oxs_RungeKuttaEvolve:evolver:dE/dt {Oxs_RungeKuttaEvolve:evolver:Delta E} Oxs_UniformExchange:exchange:Energy {Oxs_UniformExchange:exchange:Max Spin Ang} {Oxs_UniformExchange:exchange:Stage Max Spin Ang} {Oxs_UniformExchange:exchange:Run Max Spin Ang} Oxs_FixedZeeman:zeeman:Energy Oxs_TimeDriver::Iteration {Oxs_TimeDriver::Stage iteration} Oxs_TimeDriver::Stage Oxs_TimeDriver::mx   Oxs_TimeDriver::my   Oxs_TimeDriver::mz   {Oxs_TimeDriver::Last time step} {Oxs_TimeDriver::Simulation time}
# Units:                        J                                             {}                                         deg/ns                                 J/s                                   J                                     J                                      deg                                            deg                                              deg                                     J                          {}                            {}                          {}                   {}                   {}                   {}                          s                                 s                
                      -4.5321726224400003e-17                            37                                           12418.606374200001                   -9.6045764857199992e-07                 -7.1059661372300004e-19                  0                                       0                                              0                                                0                                     -4.5321726224400003e-17         6                             6                           0                     0.95585273045499997  0.21493956194300001  0.200366021058             7.3937008740199996e-13              9.9999999999999998e-13       
                      -4.6281325803800001e-17                            44                                           12407.487324899999                   -9.5873851928100011e-07                 -9.5959957934300001e-19                  0                                       0                                              0                                                0                                     -4.6281325803800001e-17         8                             1                           1                     0.88461781115500004  0.41903071241500001  0.20460838262600001        9.9999999999999998e-13              2e-12                     
                      -4.72391898017e-17                              51                                           12396.145798899999                   -9.5698657903200008e-07                 -9.5786399792300009e-19                  0                                       0                                              0                                                0                                     -4.72391898017e-17           10                            1                           2                     0.770430962138       0.60234600038099995  0.20884307123900001        9.9999999999999998e-13              3.0000000000000001e-12       
                      -4.8195285535299998e-17                            58                                           12384.582848800001                   -9.5520208451400005e-07                 -9.5609573363400009e-19                  0                                       0                                              0                                                0                                     -4.8195285535299998e-17         12                            1                           3                     0.61893572376700001  0.75598926545800005  0.21306994240800001        9.9999999999999998e-13              3.9999999999999999e-12       
                      -4.9149580580500002e-17                            65                                           12372.7995458                        -9.5338529644800004e-07                 -9.5429504518800004e-19                  0                                       0                                              0                                                0                                     -4.9149580580500002e-17         14                            1                           4                     0.43758484544300003  0.87252796946199995  0.21728885278599999        9.9999999999999998e-13              4.9999999999999997e-12       
# Table End
