# ODT 1.0
# Table Start
# Title: mmArchive Data Table, Fri Feb 11 12:51:47 CET 2022
# Columns: {Oxs_CGEvolve:evolver:Max mxHxm} {Oxs_CGEvolve:evolver:Total energy} {Oxs_CGEvolve:evolver:Delta E} {Oxs_CGEvolve:evolver:Bracket count} {Oxs_CGEvolve:evolver:Line min count} {Oxs_CGEvolve:evolver:Conjugate cycle count} {Oxs_CGEvolve:evolver:Cycle count} {Oxs_CGEvolve:evolver:Cycle sub count} {Oxs_CGEvolve:evolver:Energy calc count} Oxs_UniformExchange:exchange:Energy {Oxs_UniformExchange:exchange:Max Spin Ang} {Oxs_UniformExchange:exchange:Stage Max Spin Ang} {Oxs_UniformExchange:exchange:Run Max Spin Ang} Oxs_FixedZeeman:zeeman:Energy Oxs_MinDriver::Iteration {Oxs_MinDriver::Stage iteration} Oxs_MinDriver::Stage Oxs_MinDriver::mx    Oxs_MinDriver::my    Oxs_MinDriver::mz   
# Units:                 A/m                                 J                                J                                 {}                                   {}                                        {}                                      {}                                   {}                                      {}                                     J                                      deg                                            deg                                              deg                                     J                          {}                           {}                         {}                 {}                   {}                   {}           
                  976107.34615300002               -2.18442587856e-17                -2.18442587856e-17                 0                                    0                                         1                                       1                                    0                                       1                                     0                                       0                                              0                                                0                                     -2.18442587856e-17           0                            0                          0                    0.43758484469199999  0.87252796798200005  0.21728886024399999
                  975917.35420099995               -2.1929884175799999e-17              -8.5625390205700006e-20               1                                    0                                         1                                       1                                    0                                       2                                     0                                       0                                              0                                                0                                     -2.1929884175799999e-17         1                            1                          0                    0.43749967209399998  0.87235813697599995  0.21814059175100001
                  923546.26765499997               -3.8552319758699997e-17              -1.6622435582899999e-17               2                                    0                                         1                                       1                                    0                                       3                                     0                                       0                                              0                                                0                                     -3.8552319758699997e-17         2                            2                          0                    0.41402193282299998  0.82554439471200003  0.38348701607800001
                  842923.70315099997               -5.4088988004300003e-17              -1.5536668245599999e-17               3                                    0                                         2                                       2                                    0                                       4                                     0                                       0                                              0                                                0                                     -5.4088988004300003e-17         3                            3                          0                    0.377879174032       0.75347707275499998  0.53803311298300005
                  736689.32846700004               -6.7982189719800006e-17              -1.38932017155e-17                 4                                    0                                         3                                       3                                    0                                       5                                     0                                       0                                              0                                                0                                     -6.7982189719800006e-17         4                            4                          0                    0.33025474775300001  0.65851573121999996  0.67623134600699997
                  608071.02132000006               -7.9809787001299994e-17              -1.1827597281500001e-17               5                                    0                                         4                                       4                                    0                                       6                                     0                                       0                                              0                                                0                                     -7.9809787001299994e-17         5                            5                          0                    0.27259569808        0.54354572241700005  0.793882631773     
                  460976.78389000002               -8.9212404290400003e-17              -9.4026172891600006e-18               6                                    0                                         5                                       5                                    0                                       7                                     0                                       0                                              0                                                0                                     -8.9212404290400003e-17         6                            6                          0                    0.20665396606200001  0.41206035188599999  0.88741219549600003
                  308422.17994300002               -9.5630037912799997e-17              -6.4176336224099998e-18               7                                    0                                         6                                       6                                    0                                       8                                     0                                       0                                              0                                                0                                     -9.5630037912799997e-17         7                            7                          0                    0.13826437455000001  0.275694040217       0.951249577618     
                  299876.00014600001               -9.59043478189e-17                -2.7430990603400001e-19               8                                    0                                         6                                       6                                    0                                       9                                     0                                       0                                              0                                                0                                     -9.59043478189e-17           8                            8                          0                    0.134433157857       0.26805473607500002  0.95397818871100004
                  161442.67092400001               -9.9212208991200001e-17              -3.3078611723e-18                  9                                    0                                         7                                       7                                    0                                       10                                    0                                       0                                              0                                                0                                     -9.9212208991200001e-17         9                            9                          0                    0.072374074799500004  0.144311223721       0.98688209225099999
                  129663.635882                    -9.9682286268800005e-17              -4.7007727761600003e-19               10                                   0                                         7                                       7                                    0                                       11                                    0                                       0                                              0                                                0                                     -9.9682286268800005e-17         10                           10                         0                    0.0581276661766      0.115904412751       0.99155803739899995
                  35006.846126800003               -1.00469346724e-16                -7.8706045531499999e-19               11                                   0                                         8                                       8                                    0                                       12                                    0                                       0                                              0                                                0                                     -1.00469346724e-16           11                           11                         0                    0.015693422845299999  0.0312921037188      0.99938707252199999
                  10.230944665099999               -1.0053096491e-16                 -6.1618185516800004e-20               12                                   1                                         8                                       8                                    0                                       14                                    0                                       0                                              0                                                0                                     -1.0053096491e-16            12                           12                         0                    4.5864897441500003e-06  9.1452906223400003e-06  0.99999999994800004
                  9.0131651194700005e-06              -1.0053096491500001e-16              -5.2613817630800001e-27               12                                   3                                         8                                       8                                    0                                       16                                    0                                       0                                              0                                                0                                     -1.0053096491500001e-16         13                           13                         0                   -4.0405668429400004e-12 -8.0567341434699997e-12  1                  
# Table End
